# vtk DataFile Version 2.0
3D Unstructured Grid of Linear Triangles
ASCII
DATASET UNSTRUCTURED_GRID
FIELD FieldData  1
TIME 1 1 double
        1807.82047
POINTS     7056 float
      0.00000000E+00  1.00000000E+01  1.00000000E+00
      5.00000000E-01  1.00000000E+01  9.93333333E-01
      1.00000000E+00  1.00000000E+01  9.83333333E-01
      1.50000000E+00  1.00000000E+01  9.73333333E-01
      2.00000000E+00  1.00000000E+01  9.63333333E-01
      2.50000000E+00  1.00000000E+01  9.53333333E-01
      3.00000000E+00  1.00000000E+01  9.43333333E-01
      3.50000000E+00  1.00000000E+01  9.33333333E-01
      4.00000000E+00  1.00000000E+01  9.23333333E-01
      4.50000000E+00  1.00000000E+01  9.13333333E-01
      5.00000000E+00  1.00000000E+01  9.03333333E-01
      5.50000000E+00  1.00000000E+01  8.93333333E-01
      6.00000000E+00  1.00000000E+01  8.83333333E-01
      6.50000000E+00  1.00000000E+01  8.73333333E-01
      7.00000000E+00  1.00000000E+01  8.63333333E-01
      7.50000000E+00  1.00000000E+01  8.53333333E-01
      8.00000000E+00  1.00000000E+01  8.43333333E-01
      8.50000000E+00  1.00000000E+01  8.33333333E-01
      9.00000000E+00  1.00000000E+01  8.23333333E-01
      9.50000000E+00  1.00000000E+01  8.13333333E-01
      1.00000000E+01  1.00000000E+01  8.10000000E-01
      0.00000000E+00  9.50000000E+00  9.83333333E-01
      5.00000000E-01  9.50000000E+00  9.82500000E-01
      1.00000000E+00  9.50000000E+00  9.72500000E-01
      1.50000000E+00  9.50000000E+00  9.62500000E-01
      2.00000000E+00  9.50000000E+00  9.52500000E-01
      2.50000000E+00  9.50000000E+00  9.42500000E-01
      3.00000000E+00  9.50000000E+00  9.32500000E-01
      3.50000000E+00  9.50000000E+00  9.22500000E-01
      4.00000000E+00  9.50000000E+00  9.12500000E-01
      4.50000000E+00  9.50000000E+00  9.02500000E-01
      5.00000000E+00  9.50000000E+00  8.92500000E-01
      5.50000000E+00  9.50000000E+00  8.82500000E-01
      6.00000000E+00  9.50000000E+00  8.72500000E-01
      6.50000000E+00  9.50000000E+00  8.62500000E-01
      7.00000000E+00  9.50000000E+00  8.52500000E-01
      7.50000000E+00  9.50000000E+00  8.42500000E-01
      8.00000000E+00  9.50000000E+00  8.32500000E-01
      8.50000000E+00  9.50000000E+00  8.22500000E-01
      9.00000000E+00  9.50000000E+00  8.12500000E-01
      9.50000000E+00  9.50000000E+00  8.02500000E-01
      1.00000000E+01  9.50000000E+00  8.01666667E-01
      0.00000000E+00  9.00000000E+00  9.58333333E-01
      5.00000000E-01  9.00000000E+00  9.57500000E-01
      1.00000000E+00  9.00000000E+00  9.47500000E-01
      1.50000000E+00  9.00000000E+00  9.37500000E-01
      2.00000000E+00  9.00000000E+00  9.27500000E-01
      2.50000000E+00  9.00000000E+00  9.17500000E-01
      3.00000000E+00  9.00000000E+00  9.07500000E-01
      3.50000000E+00  9.00000000E+00  8.97500000E-01
      4.00000000E+00  9.00000000E+00  8.87500000E-01
      4.50000000E+00  9.00000000E+00  8.77500000E-01
      5.00000000E+00  9.00000000E+00  8.67500000E-01
      5.50000000E+00  9.00000000E+00  8.57500000E-01
      6.00000000E+00  9.00000000E+00  8.47500000E-01
      6.50000000E+00  9.00000000E+00  8.37500000E-01
      7.00000000E+00  9.00000000E+00  8.27500000E-01
      7.50000000E+00  9.00000000E+00  8.17500000E-01
      8.00000000E+00  9.00000000E+00  8.07500000E-01
      8.50000000E+00  9.00000000E+00  7.97500000E-01
      9.00000000E+00  9.00000000E+00  7.87500000E-01
      9.50000000E+00  9.00000000E+00  7.77500000E-01
      1.00000000E+01  9.00000000E+00  7.76666667E-01
      0.00000000E+00  8.50000000E+00  9.33333333E-01
      5.00000000E-01  8.50000000E+00  9.32500000E-01
      1.00000000E+00  8.50000000E+00  9.22500000E-01
      1.50000000E+00  8.50000000E+00  9.12500000E-01
      2.00000000E+00  8.50000000E+00  9.02500000E-01
      2.50000000E+00  8.50000000E+00  8.92500000E-01
      3.00000000E+00  8.50000000E+00  8.82500000E-01
      3.50000000E+00  8.50000000E+00  8.72500000E-01
      4.00000000E+00  8.50000000E+00  8.62500000E-01
      4.50000000E+00  8.50000000E+00  8.52500000E-01
      5.00000000E+00  8.50000000E+00  8.42500000E-01
      5.50000000E+00  8.50000000E+00  8.32500000E-01
      6.00000000E+00  8.50000000E+00  8.22500000E-01
      6.50000000E+00  8.50000000E+00  8.12500000E-01
      7.00000000E+00  8.50000000E+00  8.02500000E-01
      7.50000000E+00  8.50000000E+00  7.92500000E-01
      8.00000000E+00  8.50000000E+00  7.82500000E-01
      8.50000000E+00  8.50000000E+00  7.72500000E-01
      9.00000000E+00  8.50000000E+00  7.62500000E-01
      9.50000000E+00  8.50000000E+00  7.52500000E-01
      1.00000000E+01  8.50000000E+00  7.51666667E-01
      0.00000000E+00  8.00000000E+00  9.08333333E-01
      5.00000000E-01  8.00000000E+00  9.07500000E-01
      1.00000000E+00  8.00000000E+00  8.97500000E-01
      1.50000000E+00  8.00000000E+00  8.87500000E-01
      2.00000000E+00  8.00000000E+00  8.77500000E-01
      2.50000000E+00  8.00000000E+00  8.67500000E-01
      3.00000000E+00  8.00000000E+00  8.57500000E-01
      3.50000000E+00  8.00000000E+00  8.47500000E-01
      4.00000000E+00  8.00000000E+00  8.37500000E-01
      4.50000000E+00  8.00000000E+00  8.27500000E-01
      5.00000000E+00  8.00000000E+00  8.17500000E-01
      5.50000000E+00  8.00000000E+00  8.07500000E-01
      6.00000000E+00  8.00000000E+00  7.97500000E-01
      6.50000000E+00  8.00000000E+00  7.87500000E-01
      7.00000000E+00  8.00000000E+00  7.77500000E-01
      7.50000000E+00  8.00000000E+00  7.67500000E-01
      8.00000000E+00  8.00000000E+00  7.57500000E-01
      8.50000000E+00  8.00000000E+00  7.47500000E-01
      9.00000000E+00  8.00000000E+00  7.37500000E-01
      9.50000000E+00  8.00000000E+00  7.27500000E-01
      1.00000000E+01  8.00000000E+00  7.26666667E-01
      0.00000000E+00  7.50000000E+00  8.83333333E-01
      5.00000000E-01  7.50000000E+00  8.82500000E-01
      1.00000000E+00  7.50000000E+00  8.72500000E-01
      1.50000000E+00  7.50000000E+00  8.62500000E-01
      2.00000000E+00  7.50000000E+00  8.52500000E-01
      2.50000000E+00  7.50000000E+00  8.42500000E-01
      3.00000000E+00  7.50000000E+00  8.32500000E-01
      3.50000000E+00  7.50000000E+00  8.22500000E-01
      4.00000000E+00  7.50000000E+00  8.12500000E-01
      4.50000000E+00  7.50000000E+00  8.02500000E-01
      5.00000000E+00  7.50000000E+00  7.92500000E-01
      5.50000000E+00  7.50000000E+00  7.82500000E-01
      6.00000000E+00  7.50000000E+00  7.72500000E-01
      6.50000000E+00  7.50000000E+00  7.62500000E-01
      7.00000000E+00  7.50000000E+00  7.52500000E-01
      7.50000000E+00  7.50000000E+00  7.42500000E-01
      8.00000000E+00  7.50000000E+00  7.32500000E-01
      8.50000000E+00  7.50000000E+00  7.22500000E-01
      9.00000000E+00  7.50000000E+00  7.12500000E-01
      9.50000000E+00  7.50000000E+00  7.02500000E-01
      1.00000000E+01  7.50000000E+00  7.01666667E-01
      0.00000000E+00  7.00000000E+00  8.58333333E-01
      5.00000000E-01  7.00000000E+00  8.57500000E-01
      1.00000000E+00  7.00000000E+00  8.47500000E-01
      1.50000000E+00  7.00000000E+00  8.37500000E-01
      2.00000000E+00  7.00000000E+00  8.27500000E-01
      2.50000000E+00  7.00000000E+00  8.17500000E-01
      3.00000000E+00  7.00000000E+00  8.07500000E-01
      3.50000000E+00  7.00000000E+00  7.97500000E-01
      4.00000000E+00  7.00000000E+00  7.87500000E-01
      4.50000000E+00  7.00000000E+00  7.77500000E-01
      5.00000000E+00  7.00000000E+00  7.67500000E-01
      5.50000000E+00  7.00000000E+00  7.57500000E-01
      6.00000000E+00  7.00000000E+00  7.47500000E-01
      6.50000000E+00  7.00000000E+00  7.37500000E-01
      7.00000000E+00  7.00000000E+00  7.27500000E-01
      7.50000000E+00  7.00000000E+00  7.17500000E-01
      8.00000000E+00  7.00000000E+00  7.07500000E-01
      8.50000000E+00  7.00000000E+00  6.97500000E-01
      9.00000000E+00  7.00000000E+00  6.87500000E-01
      9.50000000E+00  7.00000000E+00  6.77500000E-01
      1.00000000E+01  7.00000000E+00  6.76666667E-01
      0.00000000E+00  6.50000000E+00  8.33333333E-01
      5.00000000E-01  6.50000000E+00  8.32500000E-01
      1.00000000E+00  6.50000000E+00  8.22500000E-01
      1.50000000E+00  6.50000000E+00  8.12500000E-01
      2.00000000E+00  6.50000000E+00  8.02500000E-01
      2.50000000E+00  6.50000000E+00  7.92500000E-01
      3.00000000E+00  6.50000000E+00  7.82500000E-01
      3.50000000E+00  6.50000000E+00  7.72500000E-01
      4.00000000E+00  6.50000000E+00  7.62500000E-01
      4.50000000E+00  6.50000000E+00  7.52500000E-01
      5.00000000E+00  6.50000000E+00  7.42500000E-01
      5.50000000E+00  6.50000000E+00  7.32500000E-01
      6.00000000E+00  6.50000000E+00  7.22500000E-01
      6.50000000E+00  6.50000000E+00  7.12500000E-01
      7.00000000E+00  6.50000000E+00  7.02500000E-01
      7.50000000E+00  6.50000000E+00  6.92500000E-01
      8.00000000E+00  6.50000000E+00  6.82500000E-01
      8.50000000E+00  6.50000000E+00  6.72500000E-01
      9.00000000E+00  6.50000000E+00  6.62500000E-01
      9.50000000E+00  6.50000000E+00  6.52500000E-01
      1.00000000E+01  6.50000000E+00  6.51666667E-01
      0.00000000E+00  6.00000000E+00  8.08333333E-01
      5.00000000E-01  6.00000000E+00  8.07500000E-01
      1.00000000E+00  6.00000000E+00  7.97500000E-01
      1.50000000E+00  6.00000000E+00  7.87500000E-01
      2.00000000E+00  6.00000000E+00  7.77500000E-01
      2.50000000E+00  6.00000000E+00  7.67500000E-01
      3.00000000E+00  6.00000000E+00  7.57500000E-01
      3.50000000E+00  6.00000000E+00  7.47500000E-01
      4.00000000E+00  6.00000000E+00  7.37500000E-01
      4.50000000E+00  6.00000000E+00  7.27500000E-01
      5.00000000E+00  6.00000000E+00  7.17500000E-01
      5.50000000E+00  6.00000000E+00  7.07500000E-01
      6.00000000E+00  6.00000000E+00  6.97500000E-01
      6.50000000E+00  6.00000000E+00  6.87500000E-01
      7.00000000E+00  6.00000000E+00  6.77500000E-01
      7.50000000E+00  6.00000000E+00  6.67500000E-01
      8.00000000E+00  6.00000000E+00  6.57500000E-01
[...]
POINT_DATA     7056
SCALARS pressure float
LOOKUP_TABLE default
 -0.17225514973071998     
 -0.17143132313509810     
 -0.17123141244620599     
 -0.17115403590884906     
 -0.17103546555483196     
 -0.17092380856410444     
 -0.17082022388881166     
 -0.17071010325728592     
 -0.17060587936042951     
 -0.17048090444791791     
 -0.17033554924736616     
 -0.17016503740132111     
 -0.16995282673098247     
 -0.16968008011935842     
 -0.16932477244084429     
 -0.16884871803952928     
 -0.16820890628740251     
 -0.16729403738925075     
 -0.16641364528313091     
 -0.16334863785697865     
 -0.16266823017736373     
 -0.17076823569921384     
 -0.17026110738246575     
 -0.16915176962458087     
 -0.16934995527404140     
 -0.16928012894667982     
 -0.16923078396594501     
 -0.16917339272592971     
 -0.16909333860568609     
 -0.16898792757238873     
 -0.16886805013289913     
 -0.16870367865685576     
 -0.16850498338288794     
 -0.16824173008614016     
 -0.16789039957283367     
 -0.16741665327082908     
 -0.16677738214258242     
 -0.16591263573757864     
 -0.16474597221965689     
 -0.16341197259654525     
 -0.16022478267457088     
 -0.16004028709748963     
 -0.17002088082273792     
 -0.16914215812928338     
 -0.16768288355658370     
 -0.16782976516862499     
 -0.16756521944622627     
 -0.16732403074974517     
 -0.16707780461578248     
 -0.16681243567567083     
 -0.16651918002463464     
 -0.16618177378047067     
 -0.16578876439428489     
 -0.16531454672315699     
 -0.16472420922517675     
 -0.16399237890936080     
 -0.16307252746790407     
 -0.16191490798083008     
 -0.16046067913943229     
 -0.15863021404124225     
 -0.15652509260880615     
 -0.15253740204869248     
 -0.15157188603481944     
 -0.16936649897308756     
 -0.16895514781826840     
 -0.16728633420442396     
 -0.16731411623603182     
 -0.16686811468931229     
 -0.16646105883606593     
 -0.16602051204570201     
 -0.16553717494531914     
 -0.16499275975283487     
 -0.16436546331609603     
 -0.16363469406268843     
 -0.16277146485704708     
 -0.16174564556157381     
 -0.16051251069004782     
 -0.15902440814947846     
 -0.15722563466175654     
 -0.15505388597330896     
 -0.15243451779603062     
 -0.14942221374548584     
 -0.14459244374348096     
 -0.14391515421222348     
 -0.16854129298495188     
 -0.16832007041981292     
 -0.16632441839751780     
 -0.16611247588370143     
 -0.16545221865224513     
 -0.16479891059405968     
 -0.16408475751226723     
 -0.16329082588905366     
 -0.16240197925106617     
 -0.16139824874345401     
 -0.16024829280953609     
 -0.15892043538226444     
 -0.15737560884060128     
 -0.15556312341197068     
 -0.15342907799087468     
 -0.15091303747196977     
 -0.14794776588922523     
 -0.14447539076681817     
 -0.14057563405759183     
 -0.13510944274298675     
 -0.13458643380859189     
 -0.16746445953381622     
 -0.16736718072622875     
 -0.16505595414931878     
 -0.16452162037624810     
 -0.16355880454937755     
 -0.16255711533191008     
 -0.16146975370083955     
 -0.16027276970832466     
 -0.15894904462386583     
 -0.15746847472875872     
 -0.15580056437213252     
 -0.15390419787476864     
 -0.15173343303215830     
 -0.14923161120384867     
 -0.14634319890023914     
 -0.14303382747914820     
 -0.13930709486133439     
 -0.13512598212152299     
 -0.13048848379784792     
 -0.12444232795646933     
 -0.12394163438033125     
 -0.16600035235653460     
 -0.16595064800669143     
 -0.16327501755306034     
 -0.16230481575217329     
 -0.16093979674175993     
 -0.15950040362608187     
 -0.15794416815564896     
 -0.15624922556234838     
 -0.15438983913450313     
 -0.15233454471197139     
 -0.15004253835665149     
 -0.14746837586133910     
 -0.14457259024556132     
 -0.14134907578792680     
 -0.13778332161820211     
 -0.13383035199995447     
 -0.12944763948623841     
 -0.12458713599577464     
 -0.11922238728481943     
 -0.11254644270962873     
 -0.11201291843483319     
 -0.16395301102609583     
 -0.16385547131278311     
 -0.16076046986077652     
 -0.15925575229176467     
 -0.15738452335339156     
 -0.15540538206269666     
 -0.15327639259721612     
 -0.15097532867016222     
 -0.14846860197364234     
 -0.14572611512959757     
 -0.14273545145701877     
 -0.13950308663128472     
 -0.13599755546970244     
 -0.13217807705393189     
 -0.12800465838958658     
 -0.12342894395675284     
 -0.11840443382202478     
 -0.11280777139320264     
 -0.10639648019390881     
  -9.8851887320866486E-002
  -9.8253519803520137E-002
 -0.16105512040995210     
 -0.16085692334447640     
 -0.15727891799339588     
 -0.15511423808360858     
 -0.15261788040765231     
 -0.14997638815549086     
 -0.14715421945972762     
 -0.14414059026903836     
 -0.14095616535767297     
 -0.13759782083525154     
 -0.13403459374314083     
 -0.13023418800475367     
 -0.12615842283941558     
 -0.12176389778099149     
 -0.11700478798620310     
 -0.11172176989538068     
 -0.10575663556159144     
  -9.9280177103156689E-002
  -9.2325127603744950E-002
  -8.4310741909878514E-002
  -8.3695964750875249E-002
 -0.15697675093524580     
 -0.15667034406232072     
 -0.15250286046471270     
 -0.14954226301754947     
 -0.14628348131030286     
 -0.14288692398269531     
 -0.13938527575868698     
 -0.13576766312850758     
 -0.13201174059434809     
 -0.12809347762312853     
 -0.12397928217888229     
 -0.11963776345571697     
 -0.11500396220821214     
 -0.10987434194119539     
 -0.10427431850718215     
  -9.8282889275337473E-002
  -9.1923451242640133E-002
  -8.4992812320695582E-002
  -7.7263661922910953E-002
  -6.8710654248650652E-002
  -6.8092587985190620E-002
 -0.15129933562909118     
 -0.15092657093351655     
 -0.14602254048708596     
 -0.14219173540487276     
 -0.13822138727043570     
 -0.13419238099879185     
 -0.13009007953625226     
 -0.12589558353720584     
 -0.12158745102649475     
 -0.11713776701680829     
 -0.11242517363214027     
 -0.10730803551123358     
 -0.10193615765667843     
  -9.6305477262671829E-002
  -9.0442240558340478E-002
  -8.4037459526708477E-002
  -7.7071456364713506E-002
  -6.9661446596983437E-002
  -6.1904488788243714E-002
  -5.3309973077974207E-002
  -5.2785282754594397E-002
 -0.14359141404827785     
 -0.14322500846197761     
 -0.13768739248621473     
 -0.13311872797794158     
 -0.12848785672060400     
 -0.12383617743653069     
 -0.11915779440278476     
 -0.11439017561927617     
 -0.10934871197819607     
 -0.10414000091609535     
  -9.8819132876133406E-002
  -9.3400099189255556E-002
  -8.7846732149231888E-002
  -8.1768576775225990E-002
  -7.5410489352472687E-002
  -6.8742362531483581E-002
  -6.1872702233076372E-002
  -5.4512586112652299E-002
  -4.6505627891492415E-002
  -3.7902744518600026E-002
  -3.7478230961012937E-002
 -0.13400824597359806     
 -0.13360776509752939     
 -0.12749570977093455     
 -0.12219927125902626     
 -0.11692990579909969     
 -0.11156463243393855     
 -0.10604561288538594     
 -0.10055290216829488     
  -9.5106604258318808E-002
  -8.9714369708497360E-002
  -8.4064023640133517E-002
  -7.8228612987629037E-002
  -7.2272237434853406E-002
  -6.6197393952026146E-002
  -6.0120224012722878E-002
  -5.3517785301536468E-002
  -4.6560699445853386E-002
  -3.9284816364843399E-002
  -3.1553428473036348E-002
  -2.3192814259129498E-002
  -2.2924159357415961E-002
 -0.12239591098156759     
 -0.12193353083755913     
 -0.11525809542193638     
 -0.10901021014917528     
 -0.10282724260788073     
  -9.6831216822418131E-002
  -9.1048366019426397E-002
  -8.5266261527016413E-002
  -7.9400141949670280E-002
  -7.3602309093839344E-002
  -6.7857830481854439E-002
  -6.2203519273377327E-002
  -5.6493161532242986E-002
  -5.0514727251379232E-002
  -4.4378501824236069E-002
  -3.8100004278956864E-002
  -3.1562551764710733E-002
  -2.4580414726613591E-002
  -1.6887661283096145E-002
  -9.6338560375131277E-003
  -9.7581942332942376E-003
 -0.10822529119914674     
 -0.10769846564280042     
 -0.10016911961548998     
  -9.3350354943037381E-002
  -8.6860209737487856E-002
  -8.0367190204813477E-002
  -7.4130981194945503E-002
  -6.8149684896852886E-002
  -6.2444758076822579E-002
  -5.6922861356135328E-002
  -5.1313202801134418E-002
  -4.5715715868177458E-002
  -4.0135489517257573E-002
  -3.4657400188746558E-002
  -2.8989622970193901E-002
  -2.3015384085808221E-002
  -1.6736651010204918E-002
  -1.0383593217160035E-002
   1.1057688070303456E-003
   1.3707609480946680E-003
   6.7626172031218170E-004
  -9.1482054632179108E-002
  -9.0987145370093808E-002
  -8.2967961174726823E-002
  -7.5479787018448152E-002
  -6.8551973040094125E-002
  -6.2226050073516358E-002
  -5.6264695413340525E-002
  -5.0397703425352089E-002
  -4.4751262355240261E-002
  -3.9410337565069294E-002
  -3.4370545948399493E-002
  -2.9225174644682259E-002
  -2.3807920508464968E-002
  -1.8615158429183980E-002
  -1.3856924558358437E-002
  -7.8895333688379383E-003
   6.9721115905556461E-004
   1.9111482986058851E-003
   4.2946410178258364E-003
   4.7927871340718220E-003
   3.0529511522131582E-003
  -7.2134517496566145E-002
  -7.1676110504451176E-002
  -6.3481127046509642E-002
  -5.5995086231434933E-002
  -4.9004635401011507E-002
  -4.2892319488973873E-002
  -3.7379219050250469E-002
  -3.2086252911563369E-002
  -2.6756512643695950E-002
  -2.1505763647078988E-002
  -1.7279641220500627E-002
  -1.2933789635229726E-002
  -6.0903959059800195E-003
   5.8622065172270308E-004
   1.6639300739362112E-003
   2.6549593958478221E-003
   4.0336657382704722E-003
   5.8624555552296677E-003
   8.6363367047495761E-003
   8.0084770458907356E-003
   5.3929804484875807E-003
  -5.1001819731774603E-002
  -5.0636829242359523E-002
  -4.2372094315771082E-002
  -3.4819504683278622E-002
  -2.7686148863472645E-002
  -2.2471405467660955E-002
  -1.8067646686016244E-002
  -1.3748316178153091E-002
  -8.3095338140876107E-003
   3.4725496555912145E-004
   1.2797919467009038E-003
   2.1524344793353275E-003
   2.9868463863424815E-003
   4.0610271826899890E-003
   5.5947548930394249E-003
   7.1033481975867081E-003
   8.6539095280006167E-003
   9.9526187277249635E-003
   1.2474509909290542E-002
   1.0748494288119029E-002
   7.0567413741428799E-003
  -2.7530859249904751E-002
  -2.7333527212283663E-002
  -1.9870044324644572E-002
  -1.0946013829942777E-002
   6.0756915453019080E-004
   1.9084278870778616E-003
   3.0090196644662216E-003
   3.9936092573086548E-003
   4.8701210514592412E-003
   5.8736544420291822E-003
   7.2359905261110092E-003
   8.5695598339919545E-003
   9.8357787478977315E-003
   1.0999920215285380E-002
   1.2103158820529918E-002
   1.3234223763121295E-002
   1.4436087149409223E-002
   1.5486946123134773E-002
   1.7488450389867804E-002
   1.3844992279381517E-002
   8.6355851208507126E-003
   1.5540182926857863E-003
   2.3284387991231513E-003
   4.2359028246920626E-003
   5.3180900102316898E-003
   6.2122192981479141E-003
   7.4700601392194551E-003
   8.4898460641122681E-003
   9.3582985313006538E-003
   1.0125476924378731E-002
   1.0760618674714216E-002
   1.1287729925320881E-002
   1.1794193762121298E-002
   1.2329703971085562E-002
   1.2908434067508337E-002
   1.3540727185451141E-002
   1.4231786662718866E-002
   1.4969328233672724E-002
   1.5667952329430686E-002
   1.6689205832778668E-002
   1.5894753162009948E-002
   1.1159646447342400E-002
   2.6821600728484728E-003
   3.9806555364705941E-003
   7.6967938447589429E-003
   1.0278748271451180E-002
   1.1154286353575817E-002
   1.1369412396100082E-002
   1.1275817707682583E-002
   1.1118494040011912E-002
   1.0960586665681473E-002
   1.0834974229805113E-002
   1.0755383151233316E-002
   1.0728820817462277E-002
   1.0758506986678283E-002
   1.0847011366241088E-002
   1.0999657335895644E-002
   1.1225039838034891E-002
   1.1534624403943965E-002
   1.1947515621285088E-002
   1.2551111443740036E-002
   1.3302878707655364E-002
   1.3722315638437331E-002
 -0.16641657002921695     
 -0.16563976178257492     
 -0.16543985867656627     
 -0.16536217213611587     
 -0.16524335756163805     
 -0.16513153671463654     
 -0.16502780471366943     
 -0.16491756315320896     
 -0.16481319515837881     
 -0.16468804731425640     
 -0.16454246619894961     
 -0.16437165545939272     
 -0.16415904359420058     
 -0.16388580434766639     
 -0.16352988139302529     
 -0.16305307000306937     
 -0.16241228255706319     
 -0.16149635807844873     
 -0.16061325958605782     
 -0.15754608016065247     
 -0.15696293423682642     
 -0.16498350001534651     
 -0.16456649822649089     
 -0.16345791931566583     
 -0.16365675747908368     
 -0.16358751857640519     
 -0.16353856859364094     
 -0.16348144759678487     
 -0.16340153648000913     
 -0.16329614371316009     
 -0.16317610992561224     
 -0.16301148783931024     
 -0.16281238632902420     
 -0.16254859966785651     
 -0.16219658006248006     
 -0.16172193081477651     
 -0.16108142843171158     
 -0.16021497804330401     
 -0.15904604817793128     
 -0.15770814260610241     
 -0.15451880799525008     
 -0.15442608995300894     
 -0.16423851113882770     
 -0.16345462602781299     
 -0.16199579996479077     
 -0.16214307367205594     
 -0.16187864654911086     
 -0.16163734763738749     
 -0.16139091935511055     
 -0.16112524599277972     
 -0.16083158728699501     
 -0.16049370147296715     
 -0.16010009858195581     
 -0.15962512532607051     
 -0.15903380857116028     
 -0.15830059694224360     
 -0.15737880977065888     
 -0.15621861285755803     
 -0.15476128157048183     
 -0.15292733322895913     
 -0.15081742426457159     
 -0.14682689134958588     
 -0.14594864109808997     
 -0.16358409932494447     
 -0.16326913215374128     
 -0.16160002377762009     
 -0.16162813592675851     
 -0.16118212738172349     
 -0.16077478713727789     
 -0.16033389611586316     
 -0.15985009619452512     
 -0.15930507456578022     
 -0.15867695617167255     
 -0.15794502353670839     
 -0.15708013703901441     
 -0.15605204129532876     
 -0.15481607437275413     
 -0.15332462197522567     
 -0.15152193140593567     
 -0.14934575502107386     
 -0.14672155349127247     
 -0.14370321657077126     
 -0.13886797785549582     
 -0.13827135576411623     
 -0.16275871922596483     
 -0.16263443999915675     
 -0.16063801121436930     
 -0.16042619692483634     
 -0.15976581017761504     
 -0.15911211231371292     
 -0.15839739690693982     
 -0.15760260046400471     
 -0.15671243075894981     
 -0.15570678929457379     
 -0.15455433532902918     
 -0.15322345411168728     
 -0.15167499152464756     
 -0.14985825777721581     
 -0.14771940177642312     
 -0.14519802161449580     
 -0.14222670139538968     
 -0.13874573293508546     
 -0.13483280895927852     
 -0.12935565022277637     
 -0.12890781857118561     
 -0.16168125422090990     
 -0.16168115410028747     
 -0.15936899344068606     
 -0.15883448314440407     
 -0.15787125389544160     
 -0.15686863685125915     
 -0.15577979238094650     
 -0.15458072170588810     
 -0.15325436091103509     
 -0.15177057013824805     
 -0.15009877241671518     
 -0.14819788395383676     
 -0.14602199329769094     
 -0.14351444360959786     
 -0.14061903669110493     
 -0.13729912269797340     
 -0.13355957099059348     
 -0.12936513653080337     
 -0.12471288966308869     
 -0.11865564942214750     
 -0.11822276369379907     
 -0.16021591552057945     
 -0.16026352601353352     
 -0.15758658660961852     
 -0.15661537281473042     
 -0.15524886383573153     
 -0.15380726263815023     
 -0.15224827937231683     
 -0.15054992484133586     
 -0.14868644269478154     
 -0.14662639969011787     
 -0.14432901159590014     
 -0.14174862001650984     
 -0.13884431175411138     
 -0.13560884550879826     
 -0.13203031120038608     
 -0.12806399201929436     
 -0.12366725470755270     
 -0.11879218938454107     
 -0.11341177820978650     
 -0.10673048014838191     
 -0.10625848489178752     
 -0.15816625285748367     
 -0.15816544239583391     
 -0.15506785589294611     
 -0.15356071241292235     
 -0.15168670672369414     
 -0.14970397179000824     
 -0.14757071164707131     
 -0.14526470795068575     
 -0.14275233030455622     
 -0.14000269300840132     
 -0.13700154672923937     
 -0.13375682550834325     
 -0.13023851829615660     
 -0.12640566404545556     
 -0.12221841563354695     
 -0.11762838048471388     
 -0.11258936820511882     
 -0.10698310079999079     
 -0.10055824242421807     
  -9.3001658025351236E-002
  -9.2452999057010418E-002
 -0.15526386286296409     
 -0.15515987181763177     
 -0.15157835295061919     
 -0.14940976023483507     
 -0.14690903322852117     
 -0.14426240793230088     
 -0.14143412733779520     
 -0.13841182410765857     
 -0.13521553575597087     
 -0.13184476156184691     
 -0.12826865050781000     
 -0.12445491216265822     
 -0.12036549734101434     
 -0.11595678628342901     
 -0.11118434607551582     
 -0.10589369544722722     
  -9.9914129529433321E-002
  -9.3420654178979615E-002
  -8.6446127139335013E-002
  -7.8428213824948828E-002
  -7.7854153747099683E-002
 -0.15117833815864518     
 -0.15096145927551621     
 -0.14678996829205454     
 -0.14382378211713773     
 -0.14055823618472152     
 -0.13715113937929557     
 -0.13363712309148004     
 -0.13000686462343916     
 -0.12623786245311111     
 -0.12230630503861910     
 -0.11817850024253639     
 -0.11382307398812089     
 -0.10917803076659324     
 -0.10404083941847822     
  -9.8425331849910841E-002
  -9.2417796101765537E-002
  -8.6040891742432415E-002
  -7.9101179080200715E-002
  -7.1354878251617238E-002
  -6.2791258667078520E-002
  -6.2200027071519302E-002
 -0.14549048416693858     
 -0.14520105345409981     
 -0.14029117330862675     
 -0.13644809334219377     
 -0.13246495936960476     
 -0.12842286767687833     
 -0.12430724519648741     
 -0.12009929471590167     
 -0.11577728623609553     
 -0.11131494215094287     
 -0.10659464147904582     
 -0.10146556725587934     
  -9.6078811359479474E-002
  -9.0432184021418074E-002
  -8.4553073739761370E-002
  -7.8140317072039722E-002
  -7.1159881707487160E-002
  -6.3735224194795798E-002
  -5.5960459664274528E-002
  -4.7360067628465417E-002
  -4.6852730429254544E-002
 -0.13776285847188549     
 -0.13747133311262030     
 -0.13192242441686255     
 -0.12733976704351582     
 -0.12269514801699824     
 -0.11802952300502235     
 -0.11333732055470649     
 -0.10855956460754566     
 -0.10350980511278056     
  -9.8286612049730798E-002
  -9.2950863419757543E-002
  -8.7516353792374255E-002
  -8.1952366223722428E-002
  -7.5863748532705069E-002
  -6.9492864135051333E-002
  -6.2811915054464623E-002
  -5.5927684390997857E-002
  -4.8558757835123645E-002
  -4.0540125050315630E-002
  -3.1929757143949598E-002
  -3.1512390014002099E-002
 -0.12815246635090785     
 -0.12781690443159974     
 -0.12169268324753583     
 -0.11638125253943236     
 -0.11109881800086414     
 -0.10572687673657101     
 -0.10019402713998793     
  -9.4686577284931947E-002
  -8.9225025155849957E-002
  -8.3818748386356279E-002
  -7.8161031114993409E-002
  -7.2313450800380402E-002
  -6.6345840061159081E-002
  -6.0259439354756694E-002
  -5.4170276692544449E-002
  -4.7561328043123137E-002
  -4.0595298052896606E-002
  -3.3310091541536371E-002
  -2.5571422750507593E-002
  -1.7207201826646899E-002
  -1.6941334146992237E-002
 -0.11651141598170942     
 -0.11610161005897147     
 -0.10941655939121911     
 -0.10315944905712478     
  -9.6961688626495110E-002
  -9.0950148330469313E-002
  -8.5152337052192287E-002
  -7.9363140443876476E-002
  -7.3484847137142942E-002
  -6.7675692406252236E-002
  -6.1920119387942320E-002
  -5.6254760502261345E-002
  -5.0538919421263429E-002
  -4.4552891435129964E-002
  -3.8409551276856864E-002
  -3.2124410544414145E-002
  -2.5580892762423233E-002
  -1.8589956346819966E-002
  -1.0896036890465467E-002
  -3.6424842427060641E-003
  -3.7666757027325659E-003
 -0.10231676495821665     
 -0.10183219600461209     
  -9.4288884673146917E-002