# vtk DataFile Version 2.0
3D Unstructured Grid of Linear Triangles
ASCII
DATASET UNSTRUCTURED_GRID
FIELD FieldData  1
TIME 1 1 double
        1804.11228
POINTS     7056 float
      0.00000000E+00  1.00000000E+01  1.00000000E+00
      5.00000000E-01  1.00000000E+01  9.93333333E-01
      1.00000000E+00  1.00000000E+01  9.83333333E-01
      1.50000000E+00  1.00000000E+01  9.73333333E-01
      2.00000000E+00  1.00000000E+01  9.63333333E-01
      2.50000000E+00  1.00000000E+01  9.53333333E-01
      3.00000000E+00  1.00000000E+01  9.43333333E-01
      3.50000000E+00  1.00000000E+01  9.33333333E-01
      4.00000000E+00  1.00000000E+01  9.23333333E-01
      4.50000000E+00  1.00000000E+01  9.13333333E-01
      5.00000000E+00  1.00000000E+01  9.03333333E-01
      5.50000000E+00  1.00000000E+01  8.93333333E-01
      6.00000000E+00  1.00000000E+01  8.83333333E-01
      6.50000000E+00  1.00000000E+01  8.73333333E-01
      7.00000000E+00  1.00000000E+01  8.63333333E-01
      7.50000000E+00  1.00000000E+01  8.53333333E-01
      8.00000000E+00  1.00000000E+01  8.43333333E-01
      8.50000000E+00  1.00000000E+01  8.33333333E-01
      9.00000000E+00  1.00000000E+01  8.23333333E-01
      9.50000000E+00  1.00000000E+01  8.13333333E-01
      1.00000000E+01  1.00000000E+01  8.10000000E-01
      0.00000000E+00  9.50000000E+00  9.83333333E-01
      5.00000000E-01  9.50000000E+00  9.82500000E-01
      1.00000000E+00  9.50000000E+00  9.72500000E-01
      1.50000000E+00  9.50000000E+00  9.62500000E-01
      2.00000000E+00  9.50000000E+00  9.52500000E-01
      2.50000000E+00  9.50000000E+00  9.42500000E-01
      3.00000000E+00  9.50000000E+00  9.32500000E-01
      3.50000000E+00  9.50000000E+00  9.22500000E-01
      4.00000000E+00  9.50000000E+00  9.12500000E-01
      4.50000000E+00  9.50000000E+00  9.02500000E-01
      5.00000000E+00  9.50000000E+00  8.92500000E-01
      5.50000000E+00  9.50000000E+00  8.82500000E-01
      6.00000000E+00  9.50000000E+00  8.72500000E-01
      6.50000000E+00  9.50000000E+00  8.62500000E-01
      7.00000000E+00  9.50000000E+00  8.52500000E-01
      7.50000000E+00  9.50000000E+00  8.42500000E-01
      8.00000000E+00  9.50000000E+00  8.32500000E-01
      8.50000000E+00  9.50000000E+00  8.22500000E-01
      9.00000000E+00  9.50000000E+00  8.12500000E-01
      9.50000000E+00  9.50000000E+00  8.02500000E-01
      1.00000000E+01  9.50000000E+00  8.01666667E-01
      0.00000000E+00  9.00000000E+00  9.58333333E-01
      5.00000000E-01  9.00000000E+00  9.57500000E-01
      1.00000000E+00  9.00000000E+00  9.47500000E-01
      1.50000000E+00  9.00000000E+00  9.37500000E-01
      2.00000000E+00  9.00000000E+00  9.27500000E-01
      2.50000000E+00  9.00000000E+00  9.17500000E-01
      3.00000000E+00  9.00000000E+00  9.07500000E-01
      3.50000000E+00  9.00000000E+00  8.97500000E-01
      4.00000000E+00  9.00000000E+00  8.87500000E-01
      4.50000000E+00  9.00000000E+00  8.77500000E-01
      5.00000000E+00  9.00000000E+00  8.67500000E-01
      5.50000000E+00  9.00000000E+00  8.57500000E-01
      6.00000000E+00  9.00000000E+00  8.47500000E-01
      6.50000000E+00  9.00000000E+00  8.37500000E-01
      7.00000000E+00  9.00000000E+00  8.27500000E-01
      7.50000000E+00  9.00000000E+00  8.17500000E-01
      8.00000000E+00  9.00000000E+00  8.07500000E-01
      8.50000000E+00  9.00000000E+00  7.97500000E-01
      9.00000000E+00  9.00000000E+00  7.87500000E-01
      9.50000000E+00  9.00000000E+00  7.77500000E-01
      1.00000000E+01  9.00000000E+00  7.76666667E-01
      0.00000000E+00  8.50000000E+00  9.33333333E-01
      5.00000000E-01  8.50000000E+00  9.32500000E-01
      1.00000000E+00  8.50000000E+00  9.22500000E-01
      1.50000000E+00  8.50000000E+00  9.12500000E-01
      2.00000000E+00  8.50000000E+00  9.02500000E-01
      2.50000000E+00  8.50000000E+00  8.92500000E-01
      3.00000000E+00  8.50000000E+00  8.82500000E-01
      3.50000000E+00  8.50000000E+00  8.72500000E-01
      4.00000000E+00  8.50000000E+00  8.62500000E-01
      4.50000000E+00  8.50000000E+00  8.52500000E-01
      5.00000000E+00  8.50000000E+00  8.42500000E-01
      5.50000000E+00  8.50000000E+00  8.32500000E-01
      6.00000000E+00  8.50000000E+00  8.22500000E-01
      6.50000000E+00  8.50000000E+00  8.12500000E-01
      7.00000000E+00  8.50000000E+00  8.02500000E-01
      7.50000000E+00  8.50000000E+00  7.92500000E-01
      8.00000000E+00  8.50000000E+00  7.82500000E-01
      8.50000000E+00  8.50000000E+00  7.72500000E-01
      9.00000000E+00  8.50000000E+00  7.62500000E-01
      9.50000000E+00  8.50000000E+00  7.52500000E-01
      1.00000000E+01  8.50000000E+00  7.51666667E-01
      0.00000000E+00  8.00000000E+00  9.08333333E-01
      5.00000000E-01  8.00000000E+00  9.07500000E-01
      1.00000000E+00  8.00000000E+00  8.97500000E-01
      1.50000000E+00  8.00000000E+00  8.87500000E-01
      2.00000000E+00  8.00000000E+00  8.77500000E-01
      2.50000000E+00  8.00000000E+00  8.67500000E-01
      3.00000000E+00  8.00000000E+00  8.57500000E-01
      3.50000000E+00  8.00000000E+00  8.47500000E-01
      4.00000000E+00  8.00000000E+00  8.37500000E-01
      4.50000000E+00  8.00000000E+00  8.27500000E-01
      5.00000000E+00  8.00000000E+00  8.17500000E-01
      5.50000000E+00  8.00000000E+00  8.07500000E-01
      6.00000000E+00  8.00000000E+00  7.97500000E-01
      6.50000000E+00  8.00000000E+00  7.87500000E-01
      7.00000000E+00  8.00000000E+00  7.77500000E-01
      7.50000000E+00  8.00000000E+00  7.67500000E-01
      8.00000000E+00  8.00000000E+00  7.57500000E-01
      8.50000000E+00  8.00000000E+00  7.47500000E-01
      9.00000000E+00  8.00000000E+00  7.37500000E-01
      9.50000000E+00  8.00000000E+00  7.27500000E-01
      1.00000000E+01  8.00000000E+00  7.26666667E-01
      0.00000000E+00  7.50000000E+00  8.83333333E-01
      5.00000000E-01  7.50000000E+00  8.82500000E-01
      1.00000000E+00  7.50000000E+00  8.72500000E-01
      1.50000000E+00  7.50000000E+00  8.62500000E-01
      2.00000000E+00  7.50000000E+00  8.52500000E-01
      2.50000000E+00  7.50000000E+00  8.42500000E-01
      3.00000000E+00  7.50000000E+00  8.32500000E-01
      3.50000000E+00  7.50000000E+00  8.22500000E-01
      4.00000000E+00  7.50000000E+00  8.12500000E-01
      4.50000000E+00  7.50000000E+00  8.02500000E-01
      5.00000000E+00  7.50000000E+00  7.92500000E-01
      5.50000000E+00  7.50000000E+00  7.82500000E-01
      6.00000000E+00  7.50000000E+00  7.72500000E-01
      6.50000000E+00  7.50000000E+00  7.62500000E-01
      7.00000000E+00  7.50000000E+00  7.52500000E-01
      7.50000000E+00  7.50000000E+00  7.42500000E-01
      8.00000000E+00  7.50000000E+00  7.32500000E-01
      8.50000000E+00  7.50000000E+00  7.22500000E-01
      9.00000000E+00  7.50000000E+00  7.12500000E-01
      9.50000000E+00  7.50000000E+00  7.02500000E-01
      1.00000000E+01  7.50000000E+00  7.01666667E-01
      0.00000000E+00  7.00000000E+00  8.58333333E-01
      5.00000000E-01  7.00000000E+00  8.57500000E-01
      1.00000000E+00  7.00000000E+00  8.47500000E-01
      1.50000000E+00  7.00000000E+00  8.37500000E-01
      2.00000000E+00  7.00000000E+00  8.27500000E-01
      2.50000000E+00  7.00000000E+00  8.17500000E-01
      3.00000000E+00  7.00000000E+00  8.07500000E-01
      3.50000000E+00  7.00000000E+00  7.97500000E-01
      4.00000000E+00  7.00000000E+00  7.87500000E-01
      4.50000000E+00  7.00000000E+00  7.77500000E-01
      5.00000000E+00  7.00000000E+00  7.67500000E-01
      5.50000000E+00  7.00000000E+00  7.57500000E-01
      6.00000000E+00  7.00000000E+00  7.47500000E-01
      6.50000000E+00  7.00000000E+00  7.37500000E-01
      7.00000000E+00  7.00000000E+00  7.27500000E-01
      7.50000000E+00  7.00000000E+00  7.17500000E-01
      8.00000000E+00  7.00000000E+00  7.07500000E-01
      8.50000000E+00  7.00000000E+00  6.97500000E-01
      9.00000000E+00  7.00000000E+00  6.87500000E-01
      9.50000000E+00  7.00000000E+00  6.77500000E-01
      1.00000000E+01  7.00000000E+00  6.76666667E-01
      0.00000000E+00  6.50000000E+00  8.33333333E-01
      5.00000000E-01  6.50000000E+00  8.32500000E-01
      1.00000000E+00  6.50000000E+00  8.22500000E-01
      1.50000000E+00  6.50000000E+00  8.12500000E-01
      2.00000000E+00  6.50000000E+00  8.02500000E-01
      2.50000000E+00  6.50000000E+00  7.92500000E-01
      3.00000000E+00  6.50000000E+00  7.82500000E-01
      3.50000000E+00  6.50000000E+00  7.72500000E-01
      4.00000000E+00  6.50000000E+00  7.62500000E-01
      4.50000000E+00  6.50000000E+00  7.52500000E-01
      5.00000000E+00  6.50000000E+00  7.42500000E-01
      5.50000000E+00  6.50000000E+00  7.32500000E-01
      6.00000000E+00  6.50000000E+00  7.22500000E-01
      6.50000000E+00  6.50000000E+00  7.12500000E-01
      7.00000000E+00  6.50000000E+00  7.02500000E-01
      7.50000000E+00  6.50000000E+00  6.92500000E-01
      8.00000000E+00  6.50000000E+00  6.82500000E-01
      8.50000000E+00  6.50000000E+00  6.72500000E-01
      9.00000000E+00  6.50000000E+00  6.62500000E-01
      9.50000000E+00  6.50000000E+00  6.52500000E-01
      1.00000000E+01  6.50000000E+00  6.51666667E-01
      0.00000000E+00  6.00000000E+00  8.08333333E-01
      5.00000000E-01  6.00000000E+00  8.07500000E-01
      1.00000000E+00  6.00000000E+00  7.97500000E-01
      1.50000000E+00  6.00000000E+00  7.87500000E-01
      2.00000000E+00  6.00000000E+00  7.77500000E-01
      2.50000000E+00  6.00000000E+00  7.67500000E-01
      3.00000000E+00  6.00000000E+00  7.57500000E-01
      3.50000000E+00  6.00000000E+00  7.47500000E-01
      4.00000000E+00  6.00000000E+00  7.37500000E-01
      4.50000000E+00  6.00000000E+00  7.27500000E-01
      5.00000000E+00  6.00000000E+00  7.17500000E-01
      5.50000000E+00  6.00000000E+00  7.07500000E-01
      6.00000000E+00  6.00000000E+00  6.97500000E-01
      6.50000000E+00  6.00000000E+00  6.87500000E-01
      7.00000000E+00  6.00000000E+00  6.77500000E-01
      7.50000000E+00  6.00000000E+00  6.67500000E-01
      8.00000000E+00  6.00000000E+00  6.57500000E-01
[...]
POINT_DATA     7056
SCALARS pressure float
LOOKUP_TABLE default
 -0.16110808354240599     
 -0.16035286722617886     
 -0.16015231939408595     
 -0.16005883010170074     
 -0.15993181661659650     
 -0.15982239371623030     
 -0.15970919984428458     
 -0.15959931013097539     
 -0.15947095094970321     
 -0.15932709923068014     
 -0.15917707374598641     
 -0.15899424897531461     
 -0.15876162658669588     
 -0.15847054373935374     
 -0.15807446908357739     
 -0.15755415693004921     
 -0.15684707839479967     
 -0.15585568292467428     
 -0.15485395116956929     
 -0.15161057038328882     
 -0.15076688164910848     
 -0.15972599508637009     
 -0.15927831430547862     
 -0.15813140706185833     
 -0.15828296206209336     
 -0.15819126405617576     
 -0.15811497368858107     
 -0.15802046536752884     
 -0.15792097812807729     
 -0.15779372026276758     
 -0.15765032296281820     
 -0.15747324938431304     
 -0.15723853812458949     
 -0.15693336808721989     
 -0.15653629649547160     
 -0.15600920723000600     
 -0.15531238458376559     
 -0.15437687353183202     
 -0.15312104612471417     
 -0.15165391052630112     
 -0.14826132873089329     
 -0.14806246558114558     
 -0.15889150522309214     
 -0.15803442427543110     
 -0.15653761359728458     
 -0.15664175866164792     
 -0.15633313635431215     
 -0.15606217529993449     
 -0.15578072802107218     
 -0.15547570739079219     
 -0.15514522435675945     
 -0.15476421812278263     
 -0.15431536901594445     
 -0.15378118371998645     
 -0.15313791936052845     
 -0.15234449045808685     
 -0.15135580194459888     
 -0.15011077947835982     
 -0.14854770588555713     
 -0.14657211969208056     
 -0.14425469434818208     
 -0.14003375853508288     
 -0.13924042280201365     
 -0.15817197940441871     
 -0.15773044371601147     
 -0.15602154797323584     
 -0.15595291685257967     
 -0.15544964313618759     
 -0.15498454632276637     
 -0.15447517209683384     
 -0.15392012495087962     
 -0.15330556110274315     
 -0.15261182275070870     
 -0.15181277213180649     
 -0.15088080658225969     
 -0.14978219717032873     
 -0.14846720327068261     
 -0.14687965879905096     
 -0.14495713245558475     
 -0.14262744401534977     
 -0.13982156614809010     
 -0.13661379488864797     
 -0.13173762593556643     
 -0.13124164345748618     
 -0.15721937498907912     
 -0.15695072456617976     
 -0.15491157242089124     
 -0.15457322576273233     
 -0.15382285899646272     
 -0.15307329091591848     
 -0.15226223552897677     
 -0.15138159964214901     
 -0.15040615430063103     
 -0.14931922120522551     
 -0.14808771889891365     
 -0.14667216013451989     
 -0.14503144718459968     
 -0.14310911603076465     
 -0.14084851877243412     
 -0.13820547345653172     
 -0.13515877864085973     
 -0.13166098604189166     
 -0.12771640854164071     
 -0.12224507688188743     
 -0.12179171959749999     
 -0.15599696072248459     
 -0.15584042309650997     
 -0.15345232565916977     
 -0.15275018323936920     
 -0.15167062319823352     
 -0.15054881983685431     
 -0.14934795534929235     
 -0.14804621002027360     
 -0.14661928912740854     
 -0.14504013793610432     
 -0.14327139722086252     
 -0.14126986972278327     
 -0.13899813794033392     
 -0.13643349240883032     
 -0.13354367412822304     
 -0.13027559187346613     
 -0.12657691798645759     
 -0.12239104748506273     
 -0.11768699575823094     
 -0.11153926443616825     
 -0.11105066127733851     
 -0.15434914348192127     
 -0.15421372772443531     
 -0.15144257733543295     
 -0.15028870334080843     
 -0.14877753026392079     
 -0.14719950165082260     
 -0.14551311048153645     
 -0.14369407046108465     
 -0.14171542294822026     
 -0.13955109563089479     
 -0.13718456420444153     
 -0.13460288316241434     
 -0.13176468368054076     
 -0.12862280626561121     
 -0.12512779180465955     
 -0.12122460701118372     
 -0.11685026534703687     
 -0.11188619655660778     
 -0.10610910913925667     
  -9.9039863642436318E-002
  -9.8485394402351531E-002
 -0.15207838556256836     
 -0.15190960967493164     
 -0.14869996796579915     
 -0.14698651967806542     
 -0.14494534112719951     
 -0.14280457616232164     
 -0.14052840837645755     
 -0.13810949501515302     
 -0.13555226447326577     
 -0.13284036699409349     
 -0.12993667323593516     
 -0.12680268687331389     
 -0.12339388618144898     
 -0.11965912656882521     
 -0.11553660386175976     
 -0.11089010204076635     
 -0.10554189380442891     
  -9.9638753583626324E-002
  -9.3196249524991157E-002
  -8.5661532803644483E-002
  -8.5073503774804715E-002
 -0.14892675980089443     
 -0.14872473277078979     
 -0.14498867447066227     
 -0.14259088129281591     
 -0.13990930220622175     
 -0.13713407189246157     
 -0.13427198824276429     
 -0.13130496035864997     
 -0.12820590908378904     
 -0.12494572613682063     
 -0.12148628942445447     
 -0.11778311689423253     
 -0.11376768995560500     
 -0.10927792627643924     
 -0.10426459599351999     
  -9.8834009148529758E-002
  -9.2972433412159591E-002
  -8.6594381446500668E-002
  -7.9212347608683287E-002
  -7.0895645390481418E-002
  -7.0282239086508699E-002
 -0.14458378464615743     
 -0.14437552412538660     
 -0.13999850270443018     
 -0.13685632802678471     
 -0.13355209429917131     
 -0.13019285129818206     
 -0.12675661289793169     
 -0.12322071264258522     
 -0.11955568843419857     
 -0.11572324282079394     
 -0.11162786248941860     
 -0.10712495684591170     
 -0.10231682780716134     
  -9.7214594835026980E-002
  -9.1816431018661868E-002
  -8.5969264912071283E-002
  -7.9335049323613599E-002
  -7.2203627462185088E-002
  -6.4564681658914047E-002
  -5.6237259558257278E-002
  -5.5721459519602022E-002
 -0.13873320894764099     
 -0.13854684265534131     
 -0.13359124454318205     
 -0.12975537735431697     
 -0.12581756302805647     
 -0.12183984019511099     
 -0.11779932045454207     
 -0.11364844168805199     
 -0.10924919500942415     
 -0.10460316619167306     
  -9.9816666917138516E-002
  -9.4874558800095543E-002
  -8.9775946175329080E-002
  -8.4204926045131190E-002
  -7.8158801588603055E-002
  -7.1758173258782726E-002
  -6.4986702188720602E-002
  -5.7920231578866686E-002
  -4.9915231499794134E-002
  -4.1209642043676740E-002
  -4.0709665660639369E-002
 -0.13139952135157873     
 -0.13117126198071205     
 -0.12565606781731084     
 -0.12108606829321433     
 -0.11647451380867320     
 -0.11178425520797988     
 -0.10687963367918285     
 -0.10192768868188794     
  -9.6957969666179519E-002
  -9.1988197233951116E-002
  -8.6919756432392165E-002
  -8.1425016245590939E-002
  -7.5766990560315009E-002
  -6.9893874547572427E-002
  -6.3843400340689319E-002
  -5.7596869868561613E-002
  -5.0625600195144387E-002
  -4.3139392449477981E-002
  -3.5274210317359680E-002
  -2.6776253859736303E-002
  -2.6433167957692003E-002
 -0.12235932313485980     
 -0.12202388018594859     
 -0.11592007672879333     
 -0.11046447286063218     
 -0.10487119190622034     
  -9.9376479487262234E-002
  -9.4013177183911181E-002
  -8.8779084618027110E-002
  -8.3324097331239494E-002
  -7.7811917197906560E-002
  -7.2294100785869189E-002
  -6.6754033280669089E-002
  -6.1272507777367168E-002
  -5.5500603564969143E-002
  -4.9353803534257640E-002
  -4.2916951987322115E-002
  -3.6234378060666296E-002
  -2.8752481360864928E-002
  -2.0332232812508313E-002
  -1.2842996099952179E-002
  -1.2833834723655400E-002
 -0.11113641175393051     
 -0.11070568392637034     
 -0.10365793378733590     
  -9.7340504097907399E-002
  -9.1312937266597685E-002
  -8.5393459705257552E-002
  -7.9427118568358282E-002
  -7.3646745473398653E-002
  -6.8035545219652341E-002
  -6.2644831314591032E-002
  -5.7347838777754900E-002
  -5.1806243055029927E-002
  -4.6217991772225048E-002
  -4.0566280557304005E-002
  -3.4835294009889849E-002
  -2.8723035663637882E-002
  -2.2125911109134675E-002
  -1.4213265860188198E-002
   1.7790697619320507E-004
   5.8942621973566553E-004
   3.0448903764900156E-004
  -9.7141074024374136E-002
  -9.6679011783106075E-002
  -8.9321540321727594E-002
  -8.2321273156027538E-002
  -7.5613448294388652E-002
  -6.9274697555914255E-002
  -6.3353648604887819E-002
  -5.7808584313224179E-002
  -5.2234575553649666E-002
  -4.6809722724511359E-002
  -4.1522275091892005E-002
  -3.6349905378520432E-002
  -3.1197196106490549E-002
  -2.5922816211139073E-002
  -2.0239782075995666E-002
  -1.4813142450337099E-002
  -9.0735153747490815E-003
   5.9142520275542239E-004
   2.8012376082516819E-003
   3.2253148937528265E-003
   2.1915664295356400E-003
  -8.1021951172217832E-002
  -8.0525378366623671E-002
  -7.2406756508507961E-002
  -6.5149084460547346E-002
  -5.8661931211097668E-002
  -5.2317700564827291E-002
  -4.6334272049600840E-002
  -4.0736173271371148E-002
  -3.5709198955588474E-002
  -3.0742118192794949E-002
  -2.5758293121544533E-002
  -2.0366922232558666E-002
  -1.6025832732392501E-002
  -1.1489674800157888E-002
  -3.7621538535776962E-003
   8.1135698996637391E-004
   2.0260500294968643E-003
   3.3418389488677498E-003
   6.3320384566714401E-003
   6.6024307356238928E-003
   4.6778452551754588E-003
  -6.2625028727647303E-002
  -6.2216579026665254E-002
  -5.4002696186830380E-002
  -4.6554789741921586E-002
  -4.0121616908035743E-002
  -3.4357307262371330E-002
  -2.8708315505279362E-002
  -2.2920045439853810E-002
  -1.8595961445920656E-002
  -1.4595718068349009E-002
  -1.0086843020748058E-002
   9.8399899882089734E-005
   1.0096583868876197E-003
   1.9584082596533960E-003
   2.8936135344761293E-003
   4.1345397859166560E-003
   5.9935795547368040E-003
   7.5617686723717346E-003
   1.0152410327064862E-002
   9.2106341556934968E-003
   6.3944251940525818E-003
  -4.2519650182053233E-002
  -4.2124193193738044E-002
  -3.3817014735107204E-002
  -2.6204892177264242E-002
  -2.0637879718159374E-002
  -1.5852006925048429E-002
  -1.0734387617757316E-002
   3.5161700401796481E-005
   9.0497507614885125E-004
   1.7883474610847451E-003
   2.5854690267324821E-003
   3.4594452524417071E-003
   4.6539588986728121E-003
   6.0443172542936343E-003
   7.3878015004898902E-003
   8.6636554542868470E-003
   1.0025922372147123E-002
   1.1242485616548203E-002
   1.3695291659760935E-002
   1.1708401339410887E-002
   7.7438627341414306E-003
  -2.0891086053078021E-002
  -2.0511716237805285E-002
  -1.1000737032207724E-002
   7.4729208593992508E-004
   2.2079929211747118E-003
   3.4085469471883266E-003
   4.4320235878316872E-003
   5.4273297367884599E-003
   6.6367527337113097E-003
   8.0031143145058315E-003
   9.2507997439575679E-003
   1.0400813336024885E-002
   1.1429277528364765E-002
   1.2410191175175648E-002
   1.3432579942641982E-002
   1.4481342766656663E-002
   1.5596955649263625E-002
   1.6583389281575590E-002
   1.8496789806947148E-002
   1.4636823593519466E-002
   9.2395156643629035E-003
   3.9704390192087310E-003
   4.2729993619334420E-003
   5.9966387491316052E-003
   7.1623701405165874E-003
   8.5393269157921260E-003
   9.5893165216903616E-003
   1.0430957112305728E-002
   1.1115364084855002E-002
   1.1634702872419828E-002
   1.2075088010319177E-002
   1.2522496037380744E-002
   1.2997985507930328E-002
   1.3509557023766624E-002
   1.4062182716600227E-002
   1.4665249474204311E-002
   1.5312595583018713E-002
   1.5982673541056053E-002
   1.6645101123560335E-002
   1.7658753424816636E-002
   1.6830195700741603E-002
   1.1949096404443242E-002
   6.1973863842942900E-003
   7.5784511655972199E-003
   1.1195539872150004E-002
   1.2965455556128916E-002
   1.3090076215168202E-002
   1.2845064356757007E-002
   1.2520645683791989E-002
   1.2219009356760258E-002
   1.1972023020082004E-002
   1.1789588339733313E-002
   1.1675874097055422E-002
   1.1630102463709869E-002
   1.1651804005208410E-002
   1.1743349692198516E-002
   1.1908241534011921E-002
   1.2150377061928255E-002
   1.2480364128306692E-002
   1.2921343962078958E-002
   1.3569834271663663E-002
   1.4388771502731554E-002
   1.4856627614720709E-002
 -0.15527708862187151     
 -0.15457332924288517     
 -0.15437283961638751     
 -0.15427949316655110     
 -0.15415255292660343     
 -0.15404318462722261     
 -0.15393000750581096     
 -0.15382008464414265     
 -0.15369165954856548     
 -0.15354769800114856     
 -0.15339747991393882     
 -0.15321441155148224     
 -0.15298147842625456     
 -0.15268997958475344     
 -0.15229336637996690     
 -0.15177225230363303     
 -0.15106402500373961     
 -0.15007127392668485     
 -0.14906663433269643     
 -0.14582140516071884     
 -0.14507717476771126     
 -0.15395357804821888     
 -0.15360514882284773     
 -0.15245754639586737     
 -0.15260977760719174     
 -0.15251841414479689     
 -0.15244229003533985     
 -0.15234788041044955     
 -0.15224843144779623     
 -0.15212116174460880     
 -0.15197769766493843     
 -0.15180048642413535     
 -0.15156556869324200     
 -0.15126002842027803     
 -0.15086229072489049     
 -0.15033407722328607     
 -0.14963553316347508     
 -0.14869771921412661     
 -0.14743908496518743     
 -0.14596769208108235     
 -0.14257212876139128     
 -0.14246482381847783     
 -0.15312222403155562     
 -0.15236694984744659     
 -0.15086934916669079     
 -0.15097399103127801     
 -0.15066548035332389     
 -0.15039449893746493     
 -0.15011304631640640     
 -0.14980797715140617     
 -0.14947736661186356     
 -0.14909611766493347     
 -0.14864680763240290     
 -0.14811181586825398     
 -0.14746728610624255     
 -0.14667209129679742     
 -0.14568109414892472     
 -0.14443314372669211     
 -0.14286648150621675     
 -0.14088677599694716     
 -0.13856379980040703     
 -0.13433716851247976     
 -0.13363133630802010     
 -0.15240303707819630     
 -0.15206394459147002     
 -0.15035421489636336     
 -0.15028611179149062     
 -0.14978307994026480     
 -0.14931801103825271     
 -0.14880861224967726     
 -0.14825329818679411     
 -0.14763813934445330     
 -0.14694338827800185     
 -0.14614287180065616     
 -0.14520894067328072     
 -0.14410774160884374     
 -0.14278950107178434     
 -0.14119806753695649     
 -0.13927090259460889     
 -0.13693555893225323     
 -0.13412167700330965     
 -0.13090137199549659     
 -0.12601383534345950     
 -0.12560073681933262     
 -0.15145035367176557     
 -0.15128468046688692     
 -0.14924476791785379     
 -0.14890686261813743     
 -0.14815669229936368     
 -0.14740685394186712     
 -0.14659513943312621     
 -0.14571335343336039     
 -0.14473628188562615     
 -0.14364711279315806     
 -0.14241270550655635     
 -0.14099359717286591     
 -0.13934862836285641     
 -0.13742118607983095     
 -0.13515394836069930     
 -0.13250112233142450     
 -0.12944216140472595     
 -0.12593147927866422     
 -0.12197237102989382     
 -0.11648977039365450     
 -0.11611352505005533     
 -0.15022757574703771     
 -0.15017471880223077     
 -0.14778558907085040     
 -0.14708331439206865     
 -0.14600318110620158     
 -0.14488016680969343     
 -0.14367750544825764     
 -0.14237328130592594     
 -0.14094318231234224     
 -0.13936016153671704     
 -0.13758673293442369     
 -0.13557932720365112     
 -0.13329937733086916     
 -0.13072354867121824     
 -0.12782162399347202     
 -0.12454075524523847     
 -0.12082844022634848     
 -0.11662831594210619     
 -0.11190897497484177     
 -0.10575542319598949     
 -0.10533800846562197     
 -0.14857885200000456     
 -0.14854703700752384     
 -0.14577392650467152     
 -0.14461885511614619     
 -0.14310590700660500     
 -0.14152519759794069     
 -0.13983538898419143     
 -0.13801213325766595     
 -0.13602823811788051     
 -0.13385679572336678     
 -0.13148019468623839     
 -0.12888691042302991     
 -0.12603659622973565     
 -0.12288189918987909     
 -0.11937345570071960     
 -0.11545634949215301     
 -0.11106805275779436     
 -0.10609389483959837     
 -0.10030451485893506     
  -9.3221677688367990E-002
  -9.2726920101626489E-002
 -0.14630584131922081     
 -0.14623862570694232     
 -0.14302631590516615     
 -0.14131003128797850     
 -0.13926534941484811     
 -0.13712001252100212     
 -0.13483780660977931     
 -0.13241014226689260     
 -0.12984167093696555     
 -0.12711797942151293     
 -0.12420195787362441     
 -0.12105508660150056     
 -0.11763298917245406     
 -0.11388457379705137     
 -0.10974917066300725     
 -0.10509434836137273     
  -9.9732821510188210E-002
  -9.3810715045104839E-002
  -8.7346239858993202E-002
  -7.9807703715360889E-002
  -7.9270697411280344E-002
 -0.14314956549045937     
 -0.14304497020973928     
 -0.13930572583272413     
 -0.13690286255787035     
 -0.13421443918969020     
 -0.13142886676336973     
 -0.12855494922951724     
 -0.12557573381739529     
 -0.12246401831191819     
 -0.11919082619015270     
 -0.11571810758988064     
 -0.11200159404466396     
 -0.10797505225918830     
 -0.10347817869585450     
  -9.8448853420843682E-002
  -9.3000320411844570E-002
  -8.7118718106105317E-002
  -8.0728364034275871E-002
  -7.3327886669833267E-002
  -6.4998526464331283E-002
  -6.4419061768125271E-002
 -0.13879836227491746     
 -0.13868204430711215     
 -0.13429911186240323     
 -0.13114505453953240     
 -0.12782842320609555     
 -0.12445639549563506     
 -0.12100703740561375     
 -0.11745784828340122     
 -0.11377941190794470     
 -0.10993449702291734     
 -0.10583056926252703     
 -0.10131726236709793     
  -9.6492545776682329E-002
  -9.1372857221536333E-002
  -8.5956004461248681E-002
  -8.0100099978606579E-002
  -7.3448168798941005E-002
  -6.6298091685959515E-002
  -5.8638284314779958E-002
  -5.0303336182851280E-002
  -4.9809930513815243E-002
 -0.13293002974176615     
 -0.13282810565486133     
 -0.12786121708258438     
 -0.12401140555397101     
 -0.12005988893714450     
 -0.11606838307738267     
 -0.11201427023831260     
 -0.10785259666066084     
 -0.10344643109939203     
  -9.8785157502205706E-002
  -9.3982345105790510E-002
  -8.9022535975516764E-002
  -8.3907276066436928E-002
  -7.8328272143500299E-002
  -7.2265790563133592E-002
  -6.5848979522887818E-002
  -5.9059636283063550E-002
  -5.1980530075604062E-002
  -4.3960456750978351E-002
  -3.5246123164140129E-002
  -3.4756811473583581E-002
 -0.12557063493745271     
 -0.12541793063981069     
 -0.11989023111227255     
 -0.11530546141321758     
 -0.11068030366314517     
 -0.10598135771812150     
 -0.10106585074135674     
  -9.6097737783294251E-002
  -9.1111193650737360E-002
  -8.6124270584936727E-002
  -8.1046626512349007E-002
  -7.5538617935717103E-002
  -6.9865288523614566E-002
  -6.3977687060676108E-002
  -5.7911634810189357E-002
  -5.1655331121717787E-002
  -4.4671098149506955E-002
  -3.7172137786964418E-002
  -2.9297343533787764E-002
  -2.0794777389306178E-002
  -2.0456141154520376E-002
 -0.11650307986713869     
 -0.11623164624221410     
 -0.11011627609232116     
 -0.10465326702184760     
  -9.9044911002662439E-002
  -9.3533394428709907E-002
  -8.8152485941872180E-002
  -8.2903867381829782E-002
  -7.7440466706175146E-002
  -7.1913994021819874E-002
  -6.6382811437703429E-002
  -6.0828350575063639E-002
  -5.5332162814810425E-002
  -4.9553839602946792E-002
  -4.3397414043829255E-002
  -3.6950855972711444E-002
  -3.0258029715913425E-002
  -2.2761988675416307E-002
  -1.4340042660632317E-002
  -6.8513031042038751E-003
  -6.8428442539537693E-003
 -0.10525751180125129     
 -0.10488203884985321     
  -9.7819295532209735E-002
  -9.1483597483838872E-002
  -8.5438242644785001E-002
  -7.9511303471590536E-002
  -7.3530162948750227E-002
  -6.7735980494805698E-002
  -6.2111168029175018E-002
  -5.6706920560510451E-002
  -5.1402793335726157E-002
  -4.5851598701778268E-002
  -4.0255127164561387E-002
  -3.4596015436203012E-002
  -2.8859677988882910E-002
  -2.2742084761831070E-002
  -1.6137655660076928E-002
  -8.2232799695282841E-003
   5.9199077031457294E-003
   6.5476289661770019E-003
   6.2392493947055084E-003
  -9.1229061911402565E-002
  -9.0806601292751449E-002
  -8.3434241170566498E-002