# vtk DataFile Version 2.0
3D Unstructured Grid of Linear Triangles
ASCII
DATASET UNSTRUCTURED_GRID
FIELD FieldData  1
TIME 1 1 double
        3604.11228
POINTS     7056 float
      0.00000000E+00  1.00000000E+01  1.00000000E+00
      5.00000000E-01  1.00000000E+01  9.93333333E-01
      1.00000000E+00  1.00000000E+01  9.83333333E-01
      1.50000000E+00  1.00000000E+01  9.73333333E-01
      2.00000000E+00  1.00000000E+01  9.63333333E-01
      2.50000000E+00  1.00000000E+01  9.53333333E-01
      3.00000000E+00  1.00000000E+01  9.43333333E-01
      3.50000000E+00  1.00000000E+01  9.33333333E-01
      4.00000000E+00  1.00000000E+01  9.23333333E-01
      4.50000000E+00  1.00000000E+01  9.13333333E-01
      5.00000000E+00  1.00000000E+01  9.03333333E-01
      5.50000000E+00  1.00000000E+01  8.93333333E-01
      6.00000000E+00  1.00000000E+01  8.83333333E-01
      6.50000000E+00  1.00000000E+01  8.73333333E-01
      7.00000000E+00  1.00000000E+01  8.63333333E-01
      7.50000000E+00  1.00000000E+01  8.53333333E-01
      8.00000000E+00  1.00000000E+01  8.43333333E-01
      8.50000000E+00  1.00000000E+01  8.33333333E-01
      9.00000000E+00  1.00000000E+01  8.23333333E-01
      9.50000000E+00  1.00000000E+01  8.13333333E-01
      1.00000000E+01  1.00000000E+01  8.10000000E-01
      0.00000000E+00  9.50000000E+00  9.83333333E-01
      5.00000000E-01  9.50000000E+00  9.82500000E-01
      1.00000000E+00  9.50000000E+00  9.72500000E-01
      1.50000000E+00  9.50000000E+00  9.62500000E-01
      2.00000000E+00  9.50000000E+00  9.52500000E-01
      2.50000000E+00  9.50000000E+00  9.42500000E-01
      3.00000000E+00  9.50000000E+00  9.32500000E-01
      3.50000000E+00  9.50000000E+00  9.22500000E-01
      4.00000000E+00  9.50000000E+00  9.12500000E-01
      4.50000000E+00  9.50000000E+00  9.02500000E-01
      5.00000000E+00  9.50000000E+00  8.92500000E-01
      5.50000000E+00  9.50000000E+00  8.82500000E-01
      6.00000000E+00  9.50000000E+00  8.72500000E-01
      6.50000000E+00  9.50000000E+00  8.62500000E-01
      7.00000000E+00  9.50000000E+00  8.52500000E-01
      7.50000000E+00  9.50000000E+00  8.42500000E-01
      8.00000000E+00  9.50000000E+00  8.32500000E-01
      8.50000000E+00  9.50000000E+00  8.22500000E-01
      9.00000000E+00  9.50000000E+00  8.12500000E-01
      9.50000000E+00  9.50000000E+00  8.02500000E-01
      1.00000000E+01  9.50000000E+00  8.01666667E-01
      0.00000000E+00  9.00000000E+00  9.58333333E-01
      5.00000000E-01  9.00000000E+00  9.57500000E-01
      1.00000000E+00  9.00000000E+00  9.47500000E-01
      1.50000000E+00  9.00000000E+00  9.37500000E-01
      2.00000000E+00  9.00000000E+00  9.27500000E-01
      2.50000000E+00  9.00000000E+00  9.17500000E-01
      3.00000000E+00  9.00000000E+00  9.07500000E-01
      3.50000000E+00  9.00000000E+00  8.97500000E-01
      4.00000000E+00  9.00000000E+00  8.87500000E-01
      4.50000000E+00  9.00000000E+00  8.77500000E-01
      5.00000000E+00  9.00000000E+00  8.67500000E-01
      5.50000000E+00  9.00000000E+00  8.57500000E-01
      6.00000000E+00  9.00000000E+00  8.47500000E-01
      6.50000000E+00  9.00000000E+00  8.37500000E-01
      7.00000000E+00  9.00000000E+00  8.27500000E-01
      7.50000000E+00  9.00000000E+00  8.17500000E-01
      8.00000000E+00  9.00000000E+00  8.07500000E-01
      8.50000000E+00  9.00000000E+00  7.97500000E-01
      9.00000000E+00  9.00000000E+00  7.87500000E-01
      9.50000000E+00  9.00000000E+00  7.77500000E-01
      1.00000000E+01  9.00000000E+00  7.76666667E-01
      0.00000000E+00  8.50000000E+00  9.33333333E-01
      5.00000000E-01  8.50000000E+00  9.32500000E-01
      1.00000000E+00  8.50000000E+00  9.22500000E-01
      1.50000000E+00  8.50000000E+00  9.12500000E-01
      2.00000000E+00  8.50000000E+00  9.02500000E-01
      2.50000000E+00  8.50000000E+00  8.92500000E-01
      3.00000000E+00  8.50000000E+00  8.82500000E-01
      3.50000000E+00  8.50000000E+00  8.72500000E-01
      4.00000000E+00  8.50000000E+00  8.62500000E-01
      4.50000000E+00  8.50000000E+00  8.52500000E-01
      5.00000000E+00  8.50000000E+00  8.42500000E-01
      5.50000000E+00  8.50000000E+00  8.32500000E-01
      6.00000000E+00  8.50000000E+00  8.22500000E-01
      6.50000000E+00  8.50000000E+00  8.12500000E-01
      7.00000000E+00  8.50000000E+00  8.02500000E-01
      7.50000000E+00  8.50000000E+00  7.92500000E-01
      8.00000000E+00  8.50000000E+00  7.82500000E-01
      8.50000000E+00  8.50000000E+00  7.72500000E-01
      9.00000000E+00  8.50000000E+00  7.62500000E-01
      9.50000000E+00  8.50000000E+00  7.52500000E-01
      1.00000000E+01  8.50000000E+00  7.51666667E-01
      0.00000000E+00  8.00000000E+00  9.08333333E-01
      5.00000000E-01  8.00000000E+00  9.07500000E-01
      1.00000000E+00  8.00000000E+00  8.97500000E-01
      1.50000000E+00  8.00000000E+00  8.87500000E-01
      2.00000000E+00  8.00000000E+00  8.77500000E-01
      2.50000000E+00  8.00000000E+00  8.67500000E-01
      3.00000000E+00  8.00000000E+00  8.57500000E-01
      3.50000000E+00  8.00000000E+00  8.47500000E-01
      4.00000000E+00  8.00000000E+00  8.37500000E-01
      4.50000000E+00  8.00000000E+00  8.27500000E-01
      5.00000000E+00  8.00000000E+00  8.17500000E-01
      5.50000000E+00  8.00000000E+00  8.07500000E-01
      6.00000000E+00  8.00000000E+00  7.97500000E-01
      6.50000000E+00  8.00000000E+00  7.87500000E-01
      7.00000000E+00  8.00000000E+00  7.77500000E-01
      7.50000000E+00  8.00000000E+00  7.67500000E-01
      8.00000000E+00  8.00000000E+00  7.57500000E-01
      8.50000000E+00  8.00000000E+00  7.47500000E-01
      9.00000000E+00  8.00000000E+00  7.37500000E-01
      9.50000000E+00  8.00000000E+00  7.27500000E-01
      1.00000000E+01  8.00000000E+00  7.26666667E-01
      0.00000000E+00  7.50000000E+00  8.83333333E-01
      5.00000000E-01  7.50000000E+00  8.82500000E-01
      1.00000000E+00  7.50000000E+00  8.72500000E-01
      1.50000000E+00  7.50000000E+00  8.62500000E-01
      2.00000000E+00  7.50000000E+00  8.52500000E-01
      2.50000000E+00  7.50000000E+00  8.42500000E-01
      3.00000000E+00  7.50000000E+00  8.32500000E-01
      3.50000000E+00  7.50000000E+00  8.22500000E-01
      4.00000000E+00  7.50000000E+00  8.12500000E-01
      4.50000000E+00  7.50000000E+00  8.02500000E-01
      5.00000000E+00  7.50000000E+00  7.92500000E-01
      5.50000000E+00  7.50000000E+00  7.82500000E-01
      6.00000000E+00  7.50000000E+00  7.72500000E-01
      6.50000000E+00  7.50000000E+00  7.62500000E-01
      7.00000000E+00  7.50000000E+00  7.52500000E-01
      7.50000000E+00  7.50000000E+00  7.42500000E-01
      8.00000000E+00  7.50000000E+00  7.32500000E-01
      8.50000000E+00  7.50000000E+00  7.22500000E-01
      9.00000000E+00  7.50000000E+00  7.12500000E-01
      9.50000000E+00  7.50000000E+00  7.02500000E-01
      1.00000000E+01  7.50000000E+00  7.01666667E-01
      0.00000000E+00  7.00000000E+00  8.58333333E-01
      5.00000000E-01  7.00000000E+00  8.57500000E-01
      1.00000000E+00  7.00000000E+00  8.47500000E-01
      1.50000000E+00  7.00000000E+00  8.37500000E-01
      2.00000000E+00  7.00000000E+00  8.27500000E-01
      2.50000000E+00  7.00000000E+00  8.17500000E-01
      3.00000000E+00  7.00000000E+00  8.07500000E-01
      3.50000000E+00  7.00000000E+00  7.97500000E-01
      4.00000000E+00  7.00000000E+00  7.87500000E-01
      4.50000000E+00  7.00000000E+00  7.77500000E-01
      5.00000000E+00  7.00000000E+00  7.67500000E-01
      5.50000000E+00  7.00000000E+00  7.57500000E-01
      6.00000000E+00  7.00000000E+00  7.47500000E-01
      6.50000000E+00  7.00000000E+00  7.37500000E-01
      7.00000000E+00  7.00000000E+00  7.27500000E-01
      7.50000000E+00  7.00000000E+00  7.17500000E-01
      8.00000000E+00  7.00000000E+00  7.07500000E-01
      8.50000000E+00  7.00000000E+00  6.97500000E-01
      9.00000000E+00  7.00000000E+00  6.87500000E-01
      9.50000000E+00  7.00000000E+00  6.77500000E-01
      1.00000000E+01  7.00000000E+00  6.76666667E-01
      0.00000000E+00  6.50000000E+00  8.33333333E-01
      5.00000000E-01  6.50000000E+00  8.32500000E-01
      1.00000000E+00  6.50000000E+00  8.22500000E-01
      1.50000000E+00  6.50000000E+00  8.12500000E-01
      2.00000000E+00  6.50000000E+00  8.02500000E-01
      2.50000000E+00  6.50000000E+00  7.92500000E-01
      3.00000000E+00  6.50000000E+00  7.82500000E-01
      3.50000000E+00  6.50000000E+00  7.72500000E-01
      4.00000000E+00  6.50000000E+00  7.62500000E-01
      4.50000000E+00  6.50000000E+00  7.52500000E-01
      5.00000000E+00  6.50000000E+00  7.42500000E-01
      5.50000000E+00  6.50000000E+00  7.32500000E-01
      6.00000000E+00  6.50000000E+00  7.22500000E-01
      6.50000000E+00  6.50000000E+00  7.12500000E-01
      7.00000000E+00  6.50000000E+00  7.02500000E-01
      7.50000000E+00  6.50000000E+00  6.92500000E-01
      8.00000000E+00  6.50000000E+00  6.82500000E-01
      8.50000000E+00  6.50000000E+00  6.72500000E-01
      9.00000000E+00  6.50000000E+00  6.62500000E-01
      9.50000000E+00  6.50000000E+00  6.52500000E-01
      1.00000000E+01  6.50000000E+00  6.51666667E-01
      0.00000000E+00  6.00000000E+00  8.08333333E-01
      5.00000000E-01  6.00000000E+00  8.07500000E-01
      1.00000000E+00  6.00000000E+00  7.97500000E-01
      1.50000000E+00  6.00000000E+00  7.87500000E-01
      2.00000000E+00  6.00000000E+00  7.77500000E-01
      2.50000000E+00  6.00000000E+00  7.67500000E-01
      3.00000000E+00  6.00000000E+00  7.57500000E-01
      3.50000000E+00  6.00000000E+00  7.47500000E-01
      4.00000000E+00  6.00000000E+00  7.37500000E-01
      4.50000000E+00  6.00000000E+00  7.27500000E-01
      5.00000000E+00  6.00000000E+00  7.17500000E-01
      5.50000000E+00  6.00000000E+00  7.07500000E-01
      6.00000000E+00  6.00000000E+00  6.97500000E-01
      6.50000000E+00  6.00000000E+00  6.87500000E-01
      7.00000000E+00  6.00000000E+00  6.77500000E-01
      7.50000000E+00  6.00000000E+00  6.67500000E-01
      8.00000000E+00  6.00000000E+00  6.57500000E-01
[...]
POINT_DATA     7056
SCALARS pressure float
LOOKUP_TABLE default
 -0.19651397092635528     
 -0.19515800533563460     
 -0.19497196449380841     
 -0.19479796812530717     
 -0.19461294548875413     
 -0.19445291980289797     
 -0.19429862052214067     
 -0.19415747134814312     
 -0.19401025336764546     
 -0.19385677382128066     
 -0.19370206667013376     
 -0.19352446490034625     
 -0.19330826401352516     
 -0.19304631260462016     
 -0.19270370481577734     
 -0.19226469677000016     
 -0.19168443179563796     
 -0.19087795761448223     
 -0.19016310608232984     
 -0.18731493229084020     
 -0.18715439262292011     
 -0.19439083335342075     
 -0.19310239625560816     
 -0.19217517594181188     
 -0.19241766599452761     
 -0.19241370230066371     
 -0.19242217238142134     
 -0.19241050646858532     
 -0.19238871316052117     
 -0.19233556754390202     
 -0.19226130729473706     
 -0.19215028983107771     
 -0.19198497376833423     
 -0.19175577515168404     
 -0.19144564082951721     
 -0.19102423394872647     
 -0.19046047376128186     
 -0.18970240472238747     
 -0.18868206333719209     
 -0.18754806890257356     
 -0.18469943074978160     
 -0.18486208517294883     
 -0.19353982672960601     
 -0.19226798498409187     
 -0.19099739329636037     
 -0.19123529838712594     
 -0.19100825212339481     
 -0.19082002405185661     
 -0.19061962259460932     
 -0.19039459190080349     
 -0.19014368836932885     
 -0.18984816518093781     
 -0.18949366003476029     
 -0.18906492153042406     
 -0.18854203025262323     
 -0.18789075289261917     
 -0.18707483941274980     
 -0.18604744041025131     
 -0.18476181146507101     
 -0.18314698022984766     
 -0.18133199749882706     
 -0.17778971001403887     
 -0.17695868818427554     
 -0.19288095229939520     
 -0.19231971363545908     
 -0.19079361019041119     
 -0.19094168751108398     
 -0.19057537119795487     
 -0.19025021745794393     
 -0.18988231682746273     
 -0.18946816899465210     
 -0.18899644970160240     
 -0.18844957566750653     
 -0.18780579111443116     
 -0.18704125524204435     
 -0.18612603573386449     
 -0.18502037254864831     
 -0.18368132115542746     
 -0.18206227921138482     
 -0.18011607204258709     
 -0.17779224464135254     
 -0.17519589229544208     
 -0.17089249308294771     
 -0.17011641063710944     
 -0.19211832742576268     
 -0.19191356791107764     
 -0.19001838898987175     
 -0.18997309910217139     
 -0.18942304213386479     
 -0.18888267704975209     
 -0.18827961744172719     
 -0.18760497306524895     
 -0.18683694508248197     
 -0.18595797969206920     
 -0.18493904734317720     
 -0.18374697187478659     
 -0.18234638392926097     
 -0.18069496456637721     
 -0.17875296416785774     
 -0.17648397194769100     
 -0.17384656834721327     
 -0.17078729438338475     
 -0.16736182166226415     
 -0.16224888886717229     
 -0.16145971778199852     
 -0.19118751660307931     
 -0.19120569963940642     
 -0.18897796476176981     
 -0.18865504950876627     
 -0.18785150254149346     
 -0.18701493071477007     
 -0.18609105779149596     
 -0.18505977974591681     
 -0.18389707294371546     
 -0.18257688212545070     
 -0.18106613521492815     
 -0.17933124192874761     
 -0.17734107131888149     
 -0.17506284644831885     
 -0.17245345385584529     
 -0.16946731056907130     
 -0.16605617844893172     
 -0.16216251104923191     
 -0.15779098101613501     
 -0.15178664177351317     
 -0.15108749161199461     
 -0.18993233693634817     
 -0.19003317554151611     
 -0.18747128146507691     
 -0.18677651669255069     
 -0.18562368516992037     
 -0.18440125320765660     
 -0.18305351978161424     
 -0.18155599112326151     
 -0.17988343942330778     
 -0.17801110083743316     
 -0.17591481688570923     
 -0.17356420255668892     
 -0.17092041828246915     
 -0.16794250607994060     
 -0.16458364635998829     
 -0.16079144905197618     
 -0.15649553988482082     
 -0.15165319791577730     
 -0.14637101409499872     
 -0.13975991099722926     
 -0.13914374670500190     
 -0.18815228681388749     
 -0.18822988332792795     
 -0.18529475042561425     
 -0.18411243545128961     
 -0.18250072271079601     
 -0.18077120133460231     
 -0.17887760109383982     
 -0.17680503386766347     
 -0.17453508300920126     
 -0.17203950289259132     
 -0.16928675156799397     
 -0.16624115200382730     
 -0.16286092437698552     
 -0.15909464404970586     
 -0.15487557206623245     
 -0.15020808262492050     
 -0.14513087285686735     
 -0.13960924081299245     
 -0.13363256870296747     
 -0.12649914394033723     
 -0.12588597765228410     
 -0.18557449506654372     
 -0.18554971413710319     
 -0.18216253495606388     
 -0.18035372997251431     
 -0.17815407496139424     
 -0.17580872685079560     
 -0.17328423417088568     
 -0.17055934364883529     
 -0.16760949922323265     
 -0.16440530381340396     
 -0.16091088506042561     
 -0.15707358508071581     
 -0.15285330784301837     
 -0.14829937575205476     
 -0.14340408548060202     
 -0.13813147605500981     
 -0.13244863103569496     
 -0.12631393418169115     
 -0.11973503775262488     
 -0.11202375343539506     
 -0.11139276280121757     
 -0.18183572209542631     
 -0.18163898566166903     
 -0.17770727506221098     
 -0.17516376715770154     
 -0.17228212561967601     
 -0.16922991666546697     
 -0.16597991996224284     
 -0.16250967169083955     
 -0.15878476719392789     
 -0.15476087174279046     
 -0.15046283971659519     
 -0.14592558248683637     
 -0.14111856620691327     
 -0.13601397107487712     
 -0.13057503106260795     
 -0.12476869582146805     
 -0.11858530875137499     
 -0.11176737541446226     
 -0.10430508061709340     
  -9.5988960358643280E-002
  -9.5335499540969287E-002
 -0.17653992288590842     
 -0.17612848250463117     
 -0.17159964625695226     
 -0.16821618223062518     
 -0.16453984064034449     
 -0.16067515246175765     
 -0.15658248645821446     
 -0.15226046142672736     
 -0.14778027326667614     
 -0.14313313112288253     
 -0.13829482069191137     
 -0.13324130946393523     
 -0.12793690863378246     
 -0.12237694232802589     
 -0.11650917152376131     
 -0.11003580996648878     
 -0.10310224644774268     
  -9.5742288827826719E-002
  -8.8014407676809250E-002
  -7.9235491962117544E-002
  -7.8583947600361317E-002
 -0.16927876886722532     
 -0.16867716512291336     
 -0.16344284387327085     
 -0.15909977722501756     
 -0.15448618439632542     
 -0.14975228127789722     
 -0.14493988389970811     
 -0.14003196192797238     
 -0.13501537693381296     
 -0.12986505969657861     
 -0.12457173207808099     
 -0.11912707081755815     
 -0.11335298195313609     
 -0.10715544176503092     
 -0.10066193823575124     
  -9.3889605669875892E-002
  -8.6790934657486635E-002
  -7.9029845248091368E-002
  -7.0770690662266600E-002
  -6.1954491155066127E-002
  -6.1408073409775006E-002
 -0.15953994272878244     
 -0.15886115071622323     
 -0.15276026813016019     
 -0.14748454418295925     
 -0.14215937896973102     
 -0.13681495654925530     
 -0.13144101240562980     
 -0.12603138250159573     
 -0.12059971850438314     
 -0.11504655510774128     
 -0.10915651371060631     
 -0.10311901305595401     
  -9.6948038280783119E-002
  -9.0661225369542936E-002
  -8.4007394512888980E-002
  -7.6976458387565616E-002
  -6.9578878177696674E-002
  -6.1883134703905579E-002
  -5.3688268204366424E-002
  -4.4816278302331113E-002
  -4.4323733280093168E-002
 -0.14705394091285340     
 -0.14642938536044486     
 -0.13975486930474393     
 -0.13378958396286630     
 -0.12786000610172890     
 -0.12201431630108152     
 -0.11620481139495704     
 -0.11017384434711797     
 -0.10411737983465816     
  -9.8087844736996124E-002
  -9.2084943864980201E-002
  -8.5988154546456447E-002
  -7.9636956149969670E-002
  -7.3140759712470124E-002
  -6.6494440637719393E-002
  -5.9760200824931768E-002
  -5.2494912544648865E-002
  -4.4826515921876683E-002
  -3.6755331550296803E-002
  -2.8269799384517139E-002
  -2.7993825692463441E-002
 -0.13245920579065026     
 -0.13184692310215865     
 -0.12470368213604528     
 -0.11820202121160624     
 -0.11161034722165539     
 -0.10502144380230775     
  -9.8587026079247492E-002
  -9.2341098120297074E-002
  -8.6190617089954374E-002
  -7.9969097362962760E-002
  -7.3797360977911286E-002
  -6.7674976345228205E-002
  -6.1600918770550850E-002
  -5.5421995410493086E-002
  -4.9017433501078740E-002
  -4.2396907405521933E-002
  -3.5496540047739736E-002
  -2.8188825743732771E-002
  -2.0104488538849344E-002
  -1.2794306117114835E-002
  -1.2954153479601778E-002
 -0.11601851476325836     
 -0.11539895378709839     
 -0.10751515494380905     
 -0.10017337966586141     
  -9.3142390939833314E-002
  -8.6324147682282984E-002
  -7.9514629711940468E-002
  -7.2935305737804712E-002
  -6.6713284399615921E-002
  -6.0838378306445846E-002
  -5.5013617265886189E-002
  -4.9173362072660792E-002
  -4.3357983169501083E-002
  -3.7537831533232251E-002
  -3.1715391099725029E-002
  -2.5594327955615729E-002
  -1.8777686215666837E-002
  -1.2067116961059344E-002
   4.2101984559549127E-004
   3.5003214059263943E-004
  -8.4367679502044056E-004
  -9.6999383832962943E-002
  -9.6435836579706474E-002
  -8.8378143422777999E-002
  -8.0475911732353939E-002
  -7.2921871565091168E-002
  -6.5848710036411282E-002
  -5.9200797993914651E-002
  -5.2581656540326205E-002
  -4.6530392648582775E-002
  -4.1041929908905365E-002
  -3.5874646465396488E-002
  -3.0658995957003696E-002
  -2.5375801060242006E-002
  -1.9810065700721243E-002
  -1.4961036608894435E-002
  -9.6465178473992483E-003
   4.2069881144450334E-004
   1.6847705992404564E-003
   3.9895262537569601E-003
   3.4626608006859054E-003
   1.3403038825450892E-003
  -7.6298192099086490E-002
  -7.5731083757532972E-002
  -6.7167416760962800E-002
  -5.9281177003463852E-002
  -5.1620884161669559E-002
  -4.4522073518428656E-002
  -3.7883545465818486E-002
  -3.1051902600710838E-002
  -2.5361425029309281E-002
  -2.0844056588974775E-002
  -1.6759990828091528E-002
  -1.2672977791298732E-002
  -8.1443418788111500E-003
   3.6981239298155232E-004
   1.4777072773256290E-003
   2.5827955435609945E-003
   3.9528531065163141E-003
   5.6864267669368088E-003
   8.6322450932828660E-003
   7.7536420107199473E-003
   4.4723627073642190E-003
  -5.4166888044288541E-002
  -5.3634460135192859E-002
  -4.4837687585761898E-002
  -3.6882392374339851E-002
  -2.9484900858333333E-002
  -2.2596826226697196E-002
  -1.6355248450419347E-002
  -5.0604565973202641E-003
   8.4844010552184810E-004
   1.9934242611195788E-003
   3.0090041961527815E-003
   4.0048289061727716E-003
   4.9558906948701433E-003
   6.0594890768277754E-003
   7.6407384978829668E-003
   9.2940481488835991E-003
   1.0870925481274921E-002
   1.2164525368959620E-002
   1.4230545325855729E-002
   1.1459211232042073E-002
   7.0778828616556112E-003
  -3.0728778244765362E-002
  -3.0246172836253173E-002
  -2.1548474199083564E-002
  -1.3829979242771476E-002
  -6.9863224009635390E-003
   8.6348791599970384E-004
   2.2646548789342913E-003
   3.3418707443468210E-003
   4.4600454988423651E-003
   5.8028092933471815E-003
   6.9211735931186671E-003
   7.9739203094472307E-003
   8.9958241671959163E-003
   9.9225411022129464E-003
   1.0731840136170576E-002
   1.1506797341232358E-002
   1.2292361287417767E-002
   1.3073877593114033E-002
   1.4207545884050248E-002
   1.3732680224505347E-002
   9.7927335706905014E-003
  -2.2873487832189430E-002
  -1.9959700230975416E-002
  -1.1410838925855753E-002
  -4.0696331684100025E-003
   8.4496860259661804E-005
   1.2393906970900961E-003
   3.9803634726007812E-003
   6.0138721781890780E-003
   7.1401667255295807E-003
   7.6807356370460558E-003
   8.0110949584746727E-003
   8.2623138629379540E-003
   8.4870387386876012E-003
   8.7193126268897934E-003
   8.9776668134873873E-003
   9.2779360076173031E-003
   9.6392839077195092E-003
   1.0090323373503175E-002
   1.0735198570981340E-002
   1.1464035500494928E-002
   1.1763630221545541E-002
 -0.19066343454642237     
 -0.18934869647067321     
 -0.18916281570009816     
 -0.18898807901089296     
 -0.18880221266233274     
 -0.18864128350137771     
 -0.18848607931031536     
 -0.18834406310607643     
 -0.18819605836538833     
 -0.18804186317122268     
 -0.18788647702485634     
 -0.18770822770125228     
 -0.18749138435654031     
 -0.18722874245228624     
 -0.18688537700570404     
 -0.18644547844378445     
 -0.18586416209470197     
 -0.18505664300616054     
 -0.18433959584579707     
 -0.18148912299749553     
 -0.18141513134824075     
 -0.18858882759268025     
 -0.18737300310582053     
 -0.18644777143329633     
 -0.18668996659924036     
 -0.18668604187319143     
 -0.18669459778385486     
 -0.18668312602977419     
 -0.18666156457680599     
 -0.18660864839442623     
 -0.18653453089797037     
 -0.18642352988987235     
 -0.18625806714367296     
 -0.18602849471860652     
 -0.18571770931711570     
 -0.18529535099016198     
 -0.18473032373606965     
 -0.18397070518076086     
 -0.18294868565652708     
 -0.18181195508564352     
 -0.17896141234041396     
 -0.17920824791421766     
 -0.18773877774325337     
 -0.18654516409942179     
 -0.18527733606295185     
 -0.18551479107178587     
 -0.18528774580837384     
 -0.18509937826337866     
 -0.18489882273529959     
 -0.18467356405319069     
 -0.18442230292904696     
 -0.18412626901352566     
 -0.18377106066091603     
 -0.18334138710202871     
 -0.18281730202449262     
 -0.18216457517485776     
 -0.18134696293067754     
 -0.18031764715076490     
 -0.17902987568938097     
 -0.17741275290847744     
 -0.17559413271989799     
 -0.17204922119699481     
 -0.17130182504882474     
 -0.18707744984388805     
 -0.18659734901993080     
 -0.18507329518798679     
 -0.18522126114306878     
 -0.18485508595659644     
 -0.18452975048332557     
 -0.18416155909522830     
 -0.18374692017212296     
 -0.18327447550330209     
 -0.18272661951935848     
 -0.18208159009097927     
 -0.18131554669309419     
 -0.18039856219929765     
 -0.17929089088779396     
 -0.17794956169946807     
 -0.17632786378422008     
 -0.17437834885884443     
 -0.17205029421248441     
 -0.16944817195262152     
 -0.16514134271513592     
 -0.16444429531239296     
 -0.18631303469924923     
 -0.18619222638001268     
 -0.18429800448744402     
 -0.18425260227549883     
 -0.18370241310305141     
 -0.18316151711522952     
 -0.18255771590139902     
 -0.18188206039906171     
 -0.18111276600834425     
 -0.18023227496255387     
 -0.17921157118148859     
 -0.17801746249767414     
 -0.17661449420722564     
 -0.17496017542796397     
 -0.17301441571466317     
 -0.17074070330046318     
 -0.16809805292349822     
 -0.16503302235983344     
 -0.16160051235524509     
 -0.15648328428756353     
 -0.15576681460481406     
 -0.18538082731763530     
 -0.18548475352268889     
 -0.18325681098900798     
 -0.18293348849237609     
 -0.18212929950932766     
 -0.18129169442523518     
 -0.18036654930105966     
 -0.17933375619168412     
 -0.17816928882621294     
 -0.17684703045787348     
 -0.17533378038216296     
 -0.17359568184246052     
 -0.17160130882755606     
 -0.16931814051324270     
 -0.16670327512235231     
 -0.16371104907146922     
 -0.16029329628585001     
 -0.15639264336904171     
 -0.15201371418113441     
 -0.14600308964253747     
 -0.14536991739967309     
 -0.18412410030532336     
 -0.18431117882855985     
 -0.18174815350054804     
 -0.18105243351452860     
 -0.17989842753353633     
 -0.17867447656967803     
 -0.17732497585472623     
 -0.17582531713369462     
 -0.17415006325318305     
 -0.17227411736195031     
 -0.17017330298240918     
 -0.16781760512884944     
 -0.16516812690902460     
 -0.16218390829989743     
 -0.15881821146100869     
 -0.15501891997733946     
 -0.15071595048474384     
 -0.14586296781062058     
 -0.14056708666962223     
 -0.13394573045709809     
 -0.13338808890196668     
 -0.18234164096157857     
 -0.18250489302117770     
 -0.17956813920141007     
 -0.17838425964273461     
 -0.17677081731579439     
 -0.17503902396411225     
 -0.17314239979246956     
 -0.17106579105070668     
 -0.16879112598097984     
 -0.16629026874445338     
 -0.16353160425899096     
 -0.16047951582539338     
 -0.15709231489469547     
 -0.15331904164581797     
 -0.14909231675781573     
 -0.14441273208982133     
 -0.13932237574896325     
 -0.13378726907198121     
 -0.12779639463095130     
 -0.12065284829243392     
 -0.12008927713586813     
 -0.17976015164557488     
 -0.17981984674012980     
 -0.17643063321651728     
 -0.17461916652599449     
 -0.17241611352585576     
 -0.17006637035647162     
 -0.16753696254212858     
 -0.16480653856527511     
 -0.16185055618433666     
 -0.15863968362901373     
 -0.15513832802481514     
 -0.15129412185460281     
 -0.14706432994761998     
 -0.14249781264943262     
 -0.13758965982507634     
 -0.13230378921925326     
 -0.12660744428045478     
 -0.12045869805746225     
 -0.11386501717543747     
 -0.10615035151797023     
 -0.10556245070602052     
 -0.17601574083377439     
 -0.17590147634889650     
 -0.17196581584467846     
 -0.16941739475751236     
 -0.16653059055876582     
 -0.16347254543991097     
 -0.16021615974453676     
 -0.15673909644918299     
 -0.15300744624784754     
 -0.14897592055554196     
 -0.14466618069464166     
 -0.14011648978373425     
 -0.13529684932265007     
 -0.13017936450207546     
 -0.12472746927973775     
 -0.11890725374571189     
 -0.11271039718087704     
 -0.10588435760156387     
  -9.8408120372227542E-002
  -9.0081622722183022E-002
  -8.9459156076243634E-002
 -0.17071031120708186     
 -0.17037716814487461     
 -0.16584309677923367     
 -0.16245327948725000     
 -0.15877031068597716     
 -0.15489884709307700     
 -0.15079938514849481     
 -0.14646713153743929     
 -0.14197472988537391     
 -0.13731532776445349     
 -0.13246446962801911     
 -0.12739845210263706     
 -0.12208133012022457     
 -0.11650792621753925     
 -0.11062914701628991     
 -0.10414657216100769     
  -9.7200145569824786E-002
  -8.9826067033122348E-002
  -8.2086779460427389E-002
  -7.3299682524489151E-002
  -7.2670468206801536E-002
 -0.16343646759446215     
 -0.16290694809093859     
 -0.15766695667392835     
 -0.15331708228656943     
 -0.14869549690382192     
 -0.14394947596996024     
 -0.13912475664960772     
 -0.13420446698024549     
 -0.12917551417668427     
 -0.12401287836449822     
 -0.11870639155426446     
 -0.11324952146157533     
 -0.10746876236262552     
 -0.10125903519588014     
  -9.4753158118281666E-002
  -8.7967789969903148E-002
  -8.0859639285478846E-002
  -7.3086758325077758E-002
  -6.4816665683412086E-002
  -5.5992961792073789E-002
  -5.5458546258566208E-002
 -0.15368354514568000     
 -0.15306966017502283     
 -0.14696057637437857     
 -0.14167220677328335     
 -0.13633463169565505     
 -0.13097769472399706     
 -0.12559128919847501     
 -0.12016852713161309     
 -0.11472421843854549     
 -0.10916312988204732     
 -0.10326284941946105     
  -9.7213838808637612E-002
  -9.1030882475465924E-002
  -8.4731747339683985E-002
  -7.8070820318816223E-002
  -7.1029902671637973E-002
  -6.3622114911074515E-002
  -5.5916121357968133E-002
  -4.7714226842433594E-002
  -3.8838449627456660E-002
  -3.8352840714873999E-002
 -0.14117499442552955     
 -0.14060594447703897     
 -0.13392113270264336     
 -0.12794314453775263     
 -0.12200047894962103     
 -0.11614139047415127     
 -0.11032176752944560     
 -0.10428180950423552     
  -9.8213574488528438E-002
  -9.2172089593080278E-002
  -8.6157666005863123E-002
  -8.0053782707693713E-002
  -7.3693277940530988E-002
  -6.7188495835606349E-002
  -6.0533742171978634E-002
  -5.3791376078322718E-002
  -4.6519658272222167E-002
  -3.8844907600517495E-002
  -3.0768714363703330E-002
  -2.2281351054171616E-002
  -2.2007931578943572E-002
 -0.12655734685023115     
 -0.12599055265354403     
 -0.11883558047067246     