# vtk DataFile Version 2.0
3D Unstructured Grid of Linear Triangles
ASCII
DATASET UNSTRUCTURED_GRID
FIELD FieldData  1
TIME 1 1 double
        3607.28712
POINTS     7056 float
      0.00000000E+00  1.00000000E+01  1.00000000E+00
      5.00000000E-01  1.00000000E+01  9.93333333E-01
      1.00000000E+00  1.00000000E+01  9.83333333E-01
      1.50000000E+00  1.00000000E+01  9.73333333E-01
      2.00000000E+00  1.00000000E+01  9.63333333E-01
      2.50000000E+00  1.00000000E+01  9.53333333E-01
      3.00000000E+00  1.00000000E+01  9.43333333E-01
      3.50000000E+00  1.00000000E+01  9.33333333E-01
      4.00000000E+00  1.00000000E+01  9.23333333E-01
      4.50000000E+00  1.00000000E+01  9.13333333E-01
      5.00000000E+00  1.00000000E+01  9.03333333E-01
      5.50000000E+00  1.00000000E+01  8.93333333E-01
      6.00000000E+00  1.00000000E+01  8.83333333E-01
      6.50000000E+00  1.00000000E+01  8.73333333E-01
      7.00000000E+00  1.00000000E+01  8.63333333E-01
      7.50000000E+00  1.00000000E+01  8.53333333E-01
      8.00000000E+00  1.00000000E+01  8.43333333E-01
      8.50000000E+00  1.00000000E+01  8.33333333E-01
      9.00000000E+00  1.00000000E+01  8.23333333E-01
      9.50000000E+00  1.00000000E+01  8.13333333E-01
      1.00000000E+01  1.00000000E+01  8.10000000E-01
      0.00000000E+00  9.50000000E+00  9.83333333E-01
      5.00000000E-01  9.50000000E+00  9.82500000E-01
      1.00000000E+00  9.50000000E+00  9.72500000E-01
      1.50000000E+00  9.50000000E+00  9.62500000E-01
      2.00000000E+00  9.50000000E+00  9.52500000E-01
      2.50000000E+00  9.50000000E+00  9.42500000E-01
      3.00000000E+00  9.50000000E+00  9.32500000E-01
      3.50000000E+00  9.50000000E+00  9.22500000E-01
      4.00000000E+00  9.50000000E+00  9.12500000E-01
      4.50000000E+00  9.50000000E+00  9.02500000E-01
      5.00000000E+00  9.50000000E+00  8.92500000E-01
      5.50000000E+00  9.50000000E+00  8.82500000E-01
      6.00000000E+00  9.50000000E+00  8.72500000E-01
      6.50000000E+00  9.50000000E+00  8.62500000E-01
      7.00000000E+00  9.50000000E+00  8.52500000E-01
      7.50000000E+00  9.50000000E+00  8.42500000E-01
      8.00000000E+00  9.50000000E+00  8.32500000E-01
      8.50000000E+00  9.50000000E+00  8.22500000E-01
      9.00000000E+00  9.50000000E+00  8.12500000E-01
      9.50000000E+00  9.50000000E+00  8.02500000E-01
      1.00000000E+01  9.50000000E+00  8.01666667E-01
      0.00000000E+00  9.00000000E+00  9.58333333E-01
      5.00000000E-01  9.00000000E+00  9.57500000E-01
      1.00000000E+00  9.00000000E+00  9.47500000E-01
      1.50000000E+00  9.00000000E+00  9.37500000E-01
      2.00000000E+00  9.00000000E+00  9.27500000E-01
      2.50000000E+00  9.00000000E+00  9.17500000E-01
      3.00000000E+00  9.00000000E+00  9.07500000E-01
      3.50000000E+00  9.00000000E+00  8.97500000E-01
      4.00000000E+00  9.00000000E+00  8.87500000E-01
      4.50000000E+00  9.00000000E+00  8.77500000E-01
      5.00000000E+00  9.00000000E+00  8.67500000E-01
      5.50000000E+00  9.00000000E+00  8.57500000E-01
      6.00000000E+00  9.00000000E+00  8.47500000E-01
      6.50000000E+00  9.00000000E+00  8.37500000E-01
      7.00000000E+00  9.00000000E+00  8.27500000E-01
      7.50000000E+00  9.00000000E+00  8.17500000E-01
      8.00000000E+00  9.00000000E+00  8.07500000E-01
      8.50000000E+00  9.00000000E+00  7.97500000E-01
      9.00000000E+00  9.00000000E+00  7.87500000E-01
      9.50000000E+00  9.00000000E+00  7.77500000E-01
      1.00000000E+01  9.00000000E+00  7.76666667E-01
      0.00000000E+00  8.50000000E+00  9.33333333E-01
      5.00000000E-01  8.50000000E+00  9.32500000E-01
      1.00000000E+00  8.50000000E+00  9.22500000E-01
      1.50000000E+00  8.50000000E+00  9.12500000E-01
      2.00000000E+00  8.50000000E+00  9.02500000E-01
      2.50000000E+00  8.50000000E+00  8.92500000E-01
      3.00000000E+00  8.50000000E+00  8.82500000E-01
      3.50000000E+00  8.50000000E+00  8.72500000E-01
      4.00000000E+00  8.50000000E+00  8.62500000E-01
      4.50000000E+00  8.50000000E+00  8.52500000E-01
      5.00000000E+00  8.50000000E+00  8.42500000E-01
      5.50000000E+00  8.50000000E+00  8.32500000E-01
      6.00000000E+00  8.50000000E+00  8.22500000E-01
      6.50000000E+00  8.50000000E+00  8.12500000E-01
      7.00000000E+00  8.50000000E+00  8.02500000E-01
      7.50000000E+00  8.50000000E+00  7.92500000E-01
      8.00000000E+00  8.50000000E+00  7.82500000E-01
      8.50000000E+00  8.50000000E+00  7.72500000E-01
      9.00000000E+00  8.50000000E+00  7.62500000E-01
      9.50000000E+00  8.50000000E+00  7.52500000E-01
      1.00000000E+01  8.50000000E+00  7.51666667E-01
      0.00000000E+00  8.00000000E+00  9.08333333E-01
      5.00000000E-01  8.00000000E+00  9.07500000E-01
      1.00000000E+00  8.00000000E+00  8.97500000E-01
      1.50000000E+00  8.00000000E+00  8.87500000E-01
      2.00000000E+00  8.00000000E+00  8.77500000E-01
      2.50000000E+00  8.00000000E+00  8.67500000E-01
      3.00000000E+00  8.00000000E+00  8.57500000E-01
      3.50000000E+00  8.00000000E+00  8.47500000E-01
      4.00000000E+00  8.00000000E+00  8.37500000E-01
      4.50000000E+00  8.00000000E+00  8.27500000E-01
      5.00000000E+00  8.00000000E+00  8.17500000E-01
      5.50000000E+00  8.00000000E+00  8.07500000E-01
      6.00000000E+00  8.00000000E+00  7.97500000E-01
      6.50000000E+00  8.00000000E+00  7.87500000E-01
      7.00000000E+00  8.00000000E+00  7.77500000E-01
      7.50000000E+00  8.00000000E+00  7.67500000E-01
      8.00000000E+00  8.00000000E+00  7.57500000E-01
      8.50000000E+00  8.00000000E+00  7.47500000E-01
      9.00000000E+00  8.00000000E+00  7.37500000E-01
      9.50000000E+00  8.00000000E+00  7.27500000E-01
      1.00000000E+01  8.00000000E+00  7.26666667E-01
      0.00000000E+00  7.50000000E+00  8.83333333E-01
      5.00000000E-01  7.50000000E+00  8.82500000E-01
      1.00000000E+00  7.50000000E+00  8.72500000E-01
      1.50000000E+00  7.50000000E+00  8.62500000E-01
      2.00000000E+00  7.50000000E+00  8.52500000E-01
      2.50000000E+00  7.50000000E+00  8.42500000E-01
      3.00000000E+00  7.50000000E+00  8.32500000E-01
      3.50000000E+00  7.50000000E+00  8.22500000E-01
      4.00000000E+00  7.50000000E+00  8.12500000E-01
      4.50000000E+00  7.50000000E+00  8.02500000E-01
      5.00000000E+00  7.50000000E+00  7.92500000E-01
      5.50000000E+00  7.50000000E+00  7.82500000E-01
      6.00000000E+00  7.50000000E+00  7.72500000E-01
      6.50000000E+00  7.50000000E+00  7.62500000E-01
      7.00000000E+00  7.50000000E+00  7.52500000E-01
      7.50000000E+00  7.50000000E+00  7.42500000E-01
      8.00000000E+00  7.50000000E+00  7.32500000E-01
      8.50000000E+00  7.50000000E+00  7.22500000E-01
      9.00000000E+00  7.50000000E+00  7.12500000E-01
      9.50000000E+00  7.50000000E+00  7.02500000E-01
      1.00000000E+01  7.50000000E+00  7.01666667E-01
      0.00000000E+00  7.00000000E+00  8.58333333E-01
      5.00000000E-01  7.00000000E+00  8.57500000E-01
      1.00000000E+00  7.00000000E+00  8.47500000E-01
      1.50000000E+00  7.00000000E+00  8.37500000E-01
      2.00000000E+00  7.00000000E+00  8.27500000E-01
      2.50000000E+00  7.00000000E+00  8.17500000E-01
      3.00000000E+00  7.00000000E+00  8.07500000E-01
      3.50000000E+00  7.00000000E+00  7.97500000E-01
      4.00000000E+00  7.00000000E+00  7.87500000E-01
      4.50000000E+00  7.00000000E+00  7.77500000E-01
      5.00000000E+00  7.00000000E+00  7.67500000E-01
      5.50000000E+00  7.00000000E+00  7.57500000E-01
      6.00000000E+00  7.00000000E+00  7.47500000E-01
      6.50000000E+00  7.00000000E+00  7.37500000E-01
      7.00000000E+00  7.00000000E+00  7.27500000E-01
      7.50000000E+00  7.00000000E+00  7.17500000E-01
      8.00000000E+00  7.00000000E+00  7.07500000E-01
      8.50000000E+00  7.00000000E+00  6.97500000E-01
      9.00000000E+00  7.00000000E+00  6.87500000E-01
      9.50000000E+00  7.00000000E+00  6.77500000E-01
      1.00000000E+01  7.00000000E+00  6.76666667E-01
      0.00000000E+00  6.50000000E+00  8.33333333E-01
      5.00000000E-01  6.50000000E+00  8.32500000E-01
      1.00000000E+00  6.50000000E+00  8.22500000E-01
      1.50000000E+00  6.50000000E+00  8.12500000E-01
      2.00000000E+00  6.50000000E+00  8.02500000E-01
      2.50000000E+00  6.50000000E+00  7.92500000E-01
      3.00000000E+00  6.50000000E+00  7.82500000E-01
      3.50000000E+00  6.50000000E+00  7.72500000E-01
      4.00000000E+00  6.50000000E+00  7.62500000E-01
      4.50000000E+00  6.50000000E+00  7.52500000E-01
      5.00000000E+00  6.50000000E+00  7.42500000E-01
      5.50000000E+00  6.50000000E+00  7.32500000E-01
      6.00000000E+00  6.50000000E+00  7.22500000E-01
      6.50000000E+00  6.50000000E+00  7.12500000E-01
      7.00000000E+00  6.50000000E+00  7.02500000E-01
      7.50000000E+00  6.50000000E+00  6.92500000E-01
      8.00000000E+00  6.50000000E+00  6.82500000E-01
      8.50000000E+00  6.50000000E+00  6.72500000E-01
      9.00000000E+00  6.50000000E+00  6.62500000E-01
      9.50000000E+00  6.50000000E+00  6.52500000E-01
      1.00000000E+01  6.50000000E+00  6.51666667E-01
      0.00000000E+00  6.00000000E+00  8.08333333E-01
      5.00000000E-01  6.00000000E+00  8.07500000E-01
      1.00000000E+00  6.00000000E+00  7.97500000E-01
      1.50000000E+00  6.00000000E+00  7.87500000E-01
      2.00000000E+00  6.00000000E+00  7.77500000E-01
      2.50000000E+00  6.00000000E+00  7.67500000E-01
      3.00000000E+00  6.00000000E+00  7.57500000E-01
      3.50000000E+00  6.00000000E+00  7.47500000E-01
      4.00000000E+00  6.00000000E+00  7.37500000E-01
      4.50000000E+00  6.00000000E+00  7.27500000E-01
      5.00000000E+00  6.00000000E+00  7.17500000E-01
      5.50000000E+00  6.00000000E+00  7.07500000E-01
      6.00000000E+00  6.00000000E+00  6.97500000E-01
      6.50000000E+00  6.00000000E+00  6.87500000E-01
      7.00000000E+00  6.00000000E+00  6.77500000E-01
      7.50000000E+00  6.00000000E+00  6.67500000E-01
      8.00000000E+00  6.00000000E+00  6.57500000E-01
[...]
POINT_DATA     7056
SCALARS pressure float
LOOKUP_TABLE default
 -0.18597943933987873     
 -0.18489221115255713     
 -0.18468725420898188     
 -0.18454047004648927     
 -0.18440609365568400     
 -0.18427949540356431     
 -0.18417652175606242     
 -0.18404619592245083     
 -0.18394027792766315     
 -0.18380277836118913     
 -0.18365754765921719     
 -0.18349082620982715     
 -0.18327681790750980     
 -0.18301502793699032     
 -0.18267147770376740     
 -0.18222284435111127     
 -0.18162248897948347     
 -0.18077905300609115     
 -0.18000233329191598     
 -0.17707848318274083     
 -0.17669538707265603     
 -0.18413416360351312     
 -0.18329762717755149     
 -0.18228251869644588     
 -0.18252988327149683     
 -0.18251289968535223     
 -0.18249958294805471     
 -0.18246552609113370     
 -0.18241205853323939     
 -0.18234193533848847     
 -0.18223470250033322     
 -0.18210083216383058     
 -0.18191671228575002     
 -0.18167306519646476     
 -0.18134401251122967     
 -0.18090382156672274     
 -0.18030902907019186     
 -0.17951244667515276     
 -0.17843801979055948     
 -0.17722416339811758     
 -0.17424538047519852     
 -0.17424049904360955     
 -0.18338220526108723     
 -0.18237425762230053     
 -0.18098929312449405     
 -0.18121645281403997     
 -0.18096084533657794     
 -0.18075222669498153     
 -0.18053259385804721     
 -0.18028757953530083     
 -0.18001378339818319     
 -0.17970243386634208     
 -0.17933400453621492     
 -0.17889043386060466     
 -0.17834450168040017     
 -0.17766283896370769     
 -0.17681080252700651     
 -0.17573354696905955     
 -0.17437921827117597     
 -0.17267945744654553     
 -0.17076673947838950     
 -0.16707623109429950     
 -0.16612902915432257     
 -0.18275827518132035     
 -0.18232939239915832     
 -0.18072312910259780     
 -0.18082249318579202     
 -0.18042549051906803     
 -0.18005862273182330     
 -0.17965774865176515     
 -0.17921616398309090     
 -0.17871752757811329     
 -0.17814079561973589     
 -0.17746579217868477     
 -0.17666825711336784     
 -0.17570873300362172     
 -0.17455181797067532     
 -0.17315336362786632     
 -0.17146875798201777     
 -0.16945226034103966     
 -0.16704517834323204     
 -0.16433318608283456     
 -0.15984925632493213     
 -0.15903704600786042     
 -0.18200110782240128     
 -0.18182211840025297     
 -0.17986574727358204     
 -0.17975050945205451     
 -0.17915744465405040     
 -0.17857111605519610     
 -0.17792673286161462     
 -0.17720767832639134     
 -0.17639572149912353     
 -0.17546695139445881     
 -0.17439557189646313     
 -0.17314893762253691     
 -0.17169050235153552     
 -0.16998571114301333     
 -0.16799129771664137     
 -0.16565795428548521     
 -0.16293381959872472     
 -0.15975757702665427     
 -0.15616578297626524     
 -0.15083728596480814     
 -0.15013616640298164     
 -0.18102349502369236     
 -0.18099363102010402     
 -0.17873034870725607     
 -0.17832316201736736     
 -0.17745868886204871     
 -0.17656148660947388     
 -0.17557432899200368     
 -0.17447717964089263     
 -0.17324925953702772     
 -0.17186449862247435     
 -0.17029487289824460     
 -0.16851160213747646     
 -0.16647485669335868     
 -0.16414174938220913     
 -0.16146330351221774     
 -0.15838548721648626     
 -0.15484612191592864     
 -0.15077469320889289     
 -0.14623707812169565     
 -0.14023155902688536     
 -0.13965985567913761     
 -0.17968564183391528     
 -0.17971692837294903     
 -0.17711745452517372     
 -0.17631665880003455     
 -0.17508097334992526     
 -0.17377236777249966     
 -0.17233990131464239     
 -0.17076466401733958     
 -0.16902825047208744     
 -0.16710273800775749     
 -0.16495647434320468     
 -0.16255154458673673     
 -0.15984579144231520     
 -0.15678935234530972     
 -0.15332202472247466     
 -0.14939339735766571     
 -0.14503134314859956     
 -0.14022430660431967     
 -0.13496256711949542     
 -0.12840014587412046     
 -0.12784754237876206     
 -0.17780365201561649     
 -0.17780670597200179     
 -0.17480955208197169     
 -0.17349668454647771     
 -0.17178164563980061     
 -0.16995839726668699     
 -0.16798828831322948     
 -0.16584946388092861     
 -0.16351618540565635     
 -0.16095858374626532     
 -0.15814020531652756     
 -0.15501625701362023     
 -0.15153431684530522     
 -0.14768150269164010     
 -0.14348324302312701     
 -0.13890504315499080     
 -0.13390734874142288     
 -0.12844501413074091     
 -0.12249227473155672     
 -0.11540929827870176     
 -0.11484498896858927     
 -0.17509930409532984     
 -0.17499424902801838     
 -0.17152992109576498     
 -0.16959296960563106     
 -0.16729937714420295     
 -0.16486617653569222     
 -0.16225939998443892     
 -0.15945572716912979     
 -0.15642552856259659     
 -0.15312924421555263     
 -0.14953689204875492     
 -0.14567874071684209     
 -0.14155021201512125     
 -0.13711382569755237     
 -0.13233429988775730     
 -0.12716429730427836     
 -0.12156935760923668     
 -0.11548622764424971     
 -0.10859571491225314     
 -0.10064896671986741     
 -0.10001246273271786     
 -0.17124681764743596     
 -0.17097638688082137     
 -0.16698733791770531     
 -0.16431657895296065     
 -0.16132734706004598     
 -0.15817052073439980     
 -0.15481325559450909     
 -0.15122639744842786     
 -0.14742812235908123     
 -0.14345342624042520     
 -0.13927702039247983     
 -0.13487105996691898     
 -0.13020146835253860     
 -0.12522596989973686     
 -0.11992404879719633     
 -0.11418150625468060     
 -0.10773590784087508     
 -0.10078391541707156     
  -9.3370655915106668E-002
  -8.5087491418703143E-002
  -8.4465526214828834E-002
 -0.16588601372612047     
 -0.16543956459714435     
 -0.16082372299034606     
 -0.15729026877731733     
 -0.15346815112936524     
 -0.14946551713323691     
 -0.14534546840678236     
 -0.14111530963876859     
 -0.13675367218644327     
 -0.13224064724165036     
 -0.12754385456579956     
 -0.12264271081790756     
 -0.11750445705306768     
 -0.11192006184351233     
 -0.10585252322103271     
  -9.9410238797721401E-002
  -9.2627721174200164E-002
  -8.5362645432404502E-002
  -7.7364498182487584E-002
  -6.8607844149991062E-002
  -6.7982549169176829E-002
 -0.15854187942115833     
 -0.15798411436494914     
 -0.15257975276646929     
 -0.14808273073526726     
 -0.14347982737818404     
 -0.13883050935775537     
 -0.13412285104003191     
 -0.12933890907289841     
 -0.12446124378847086     
 -0.11948565241078045     
 -0.11430483570160170     
 -0.10871626311855909     
 -0.10289481084132342     
  -9.6846838022348627E-002
  -9.0609058091863273E-002
  -8.3893014797961379E-002
  -7.6692915429411604E-002
  -6.9059577646377893E-002
  -6.1114594092587023E-002
  -5.2379714385623971E-002
  -5.1853428123402122E-002
 -0.14869476398439585     
 -0.14815484570335072     
 -0.14208196348295332     
 -0.13685284353271535     
 -0.13160226913492315     
 -0.12635566774330320     
 -0.12112694123959275     
 -0.11586396295972666     
 -0.11033553682113956     
 -0.10467786124854174     
  -9.8940300208192486E-002
  -9.3142375989092543E-002
  -8.7232153312151825E-002
  -8.0885636162498123E-002
  -7.4315659095046283E-002
  -6.7490833985196785E-002
  -6.0520194980485144E-002
  -5.2982752686867945E-002
  -4.4916632864619964E-002
  -3.6348727960434590E-002
  -3.5981903100978409E-002
 -0.13669012206052722     
 -0.13615263480029766     
 -0.12951852802438271     
 -0.12360668904175480     
 -0.11779158069766957     
 -0.11188156196210906     
 -0.10589850445399383     
  -9.9988895438010997E-002
  -9.4178626332773241E-002
  -8.8460037896914520E-002
  -8.2465641236746379E-002
  -7.6413536083316719E-002
  -7.0280780201354698E-002
  -6.4090828211740697E-002
  -5.7869050771804958E-002
  -5.1202534622163336E-002
  -4.4261648398387032E-002
  -3.7073436747049514E-002
  -2.9400391831194767E-002
  -2.1146612474146623E-002
  -2.0927126033056232E-002
 -0.12251520759446674     
 -0.12197086037147151     
 -0.11483549420106287     
 -0.10802249253103850     
 -0.10137882916900005     
  -9.4992789051087670E-002
  -8.8881961447631441E-002
  -8.2681600548034348E-002
  -7.6603530207651108E-002
  -7.0641557876568589E-002
  -6.4797164555374528E-002
  -5.9137805216518964E-002
  -5.3227771032717870E-002
  -4.7236087508178766E-002
  -4.1162154865791153E-002
  -3.4964817392781192E-002
  -2.8569596681337059E-002
  -2.1860101595888231E-002
  -1.4656928375195557E-002
  -7.6859105633904504E-003
  -7.9207270410248855E-003
 -0.10576209626211770     
 -0.10519443296247619     
  -9.7377520902089773E-002
  -9.0258457583671861E-002
  -8.3218934964854385E-002
  -7.6391030128889981E-002
  -6.9904982470537336E-002
  -6.3838611188985442E-002
  -5.8142916691242399E-002
  -5.2427966654575740E-002
  -4.6815245828156264E-002
  -4.1310029635653348E-002
  -3.5947922878149227E-002
  -3.0514793620351467E-002
  -2.4919187375402035E-002
  -1.8832724754164424E-002
  -1.3480308871795878E-002
  -7.6445981834110778E-003
   1.4101670349508325E-003
   1.1465217909078986E-003
   3.3203019535368492E-004
  -8.7029663720566489E-002
  -8.6461363006329894E-002
  -7.8089361876257313E-002
  -7.0385347683252858E-002
  -6.3272601467560266E-002
  -5.6548494154335938E-002
  -4.9982360115900334E-002
  -4.4146088952995828E-002
  -3.8851141436126495E-002
  -3.3827249454870735E-002
  -2.8811852658293221E-002
  -2.3701164120243388E-002
  -1.8693462082694640E-002
  -1.4235992542846812E-002
  -9.3484666465191591E-003
   2.7285220748836467E-004
   1.5547477733056424E-003
   2.6925055540698412E-003
   5.1641427795296631E-003
   4.9694715651616515E-003
   2.1794400459863102E-003
  -6.6051863020759355E-002
  -6.5586894242773253E-002
  -5.7266166731287205E-002
  -4.9341185548108041E-002
  -4.2175745689088232E-002
  -3.5559902155743534E-002
  -2.8539128871209879E-002
  -2.3508367918887892E-002
  -1.9270515495022338E-002
  -1.5327780697687090E-002
  -1.1293032054471413E-002
  -5.9037205474879225E-003
   5.1187997325107004E-004
   1.5489425263265136E-003
   2.5620598935379370E-003
   3.7099698784575884E-003
   5.4479437220695094E-003
   7.2386730057666581E-003
   9.8799797146687761E-003
   8.6052000470783624E-003
   5.1615270735030049E-003
  -4.4008581445024821E-002
  -4.3536933870254688E-002
  -3.5025176603812887E-002
  -2.6780548469925742E-002
  -1.9872034460061694E-002
  -1.3740178673911391E-002
   4.0453874786622291E-005
   1.1747521730507170E-003
   2.2685014565210688E-003
   3.2492300300943078E-003
   4.2128477883071986E-003
   5.1320729927351091E-003
   6.2175502800697951E-003
   7.7308084429107788E-003
   9.2612766058230087E-003
   1.0687467766290700E-002
   1.2010523015328166E-002
   1.3133542206787039E-002
   1.5138429455079349E-002
   1.2003761459711866E-002
   7.3545076834875380E-003
  -2.0876504303244430E-002
  -2.0421249853154487E-002
  -1.1553952128387836E-002
   4.1386456960916399E-004
   1.7819132667369459E-003
   3.0386778613933139E-003
   4.0516901848817758E-003
   5.1965370850185185E-003
   6.4437315698126054E-003
   7.4616885709373184E-003
   8.4313379467081864E-003
   9.3598364285879983E-003
   1.0170033979514551E-002
   1.0867505873957567E-002
   1.1558192734349347E-002
   1.2269938529038009E-002
   1.2994690748853203E-002
   1.3730260964245311E-002
   1.4815771417680101E-002
   1.4203235974706791E-002
   9.9581752394124305E-003
  -1.3243638414618057E-002
  -1.0425061427200415E-002
  -2.3946798001742197E-003
   8.1249195266625397E-004
   3.0223076849512712E-003
   5.4924205069160903E-003
   7.2714648772094510E-003
   8.1288143683842361E-003
   8.4800400066070807E-003
   8.6747632212013474E-003
   8.8111819969084806E-003
   8.9356872064531717E-003
   9.0769582460703529E-003
   9.2515379218716907E-003
   9.4690055542472097E-003
   9.7378363307294054E-003
   1.0073773799614891E-002
   1.0504168844160196E-002
   1.1124043099723606E-002
   1.1828796920936805E-002
   1.2128377643216379E-002
 -0.18013400516330608     
 -0.17908974567372610     
 -0.17888479065711130     
 -0.17873725226408946     
 -0.17860213336294789     
 -0.17847486968634102     
 -0.17837128890612544     
 -0.17824047469839077     
 -0.17813408875909367     
 -0.17799619686233989     
 -0.17785057593280060     
 -0.17768343780177562     
 -0.17746897520421989     
 -0.17720662511292265     
 -0.17686240331167880     
 -0.17641294717577727     
 -0.17581161324697181     
 -0.17496724048657822     
 -0.17418835101306029     
 -0.17126241393400901     
 -0.17097086362334130     
 -0.17833859237510208     
 -0.17758109492723900     
 -0.17656784474149315     
 -0.17681535128383563     
 -0.17679882171093766     
 -0.17678592880871469     
 -0.17675229058260131     
 -0.17669916883737882     
 -0.17662927227024333     
 -0.17652214130956143     
 -0.17638817032010282     
 -0.17620375112538203     
 -0.17595956450119365     
 -0.17562974464897302     
 -0.17518854422095950     
 -0.17459252828336974     
 -0.17379450256069451     
 -0.17271852458337791     
 -0.17150192233920175     
 -0.16852137587218469     
 -0.16860504025205036     
 -0.17758777858221259     
 -0.17666497776064044     
 -0.17528214124908365     
 -0.17550927019291204     
 -0.17525388486385082     
 -0.17504522234154288     
 -0.17482546286910677     
 -0.17458020519979514     
 -0.17430600984925357     
 -0.17399408197888383     
 -0.17362489424848473     
 -0.17318037951262391     
 -0.17263331705008880     
 -0.17195034325139230     
 -0.17109676529455967     
 -0.17001769362811386     
 -0.16866112447054166     
 -0.16695857926217703     
 -0.16504143104728813     
 -0.16134855852109778     
 -0.16048799048419612     
 -0.17696247708372251     
 -0.17662158066335085     
 -0.17501643870450156     
 -0.17511597846631616     
 -0.17471909489353318     
 -0.17435200744312365     
 -0.17395075911102534     
 -0.17350859118341710     
 -0.17300916922331872     
 -0.17243146360787981     
 -0.17175529503542075     
 -0.17095637126106050     
 -0.16999519899724386     
 -0.16883624921720736     
 -0.16743517319747769     
 -0.16574716778088286     
 -0.16372667977395655     
 -0.16131527714075661     
 -0.15859762728777663     
 -0.15411038558619083     
 -0.15337857909888900     
 -0.17620445570398366     
 -0.17611539949250790     
 -0.17415907640700448     
 -0.17404385664628011     
 -0.17345056349668520     
 -0.17286365052572689     
 -0.17221851248626174     
 -0.17149851270895952     
 -0.17068540807793303     
 -0.16975524770898992     
 -0.16868213302349783     
 -0.16743325041430185     
 -0.16597184270858836     
 -0.16426331456683579     
 -0.16226466862749489     
 -0.15992656430511060     
 -0.15719712509602568     
 -0.15401512760956904     
 -0.15041656780040599     
 -0.14508361408810627     
 -0.14445644170441874     
 -0.17522604035226758     
 -0.17528692135905680     
 -0.17302282750856160     
 -0.17261530382130483     
 -0.17175022710368734     
 -0.17085211290168162     
 -0.16986384586503420     
 -0.16876529446006938     
 -0.16753553325071163     
 -0.16614828366520715     
 -0.16457537420961141     
 -0.16278819728679614     
 -0.16074701873227501     
 -0.15840886624570513     
 -0.15572480851264792     
 -0.15264087505625007     
 -0.14909512788589394     
 -0.14501598586494030     
 -0.14046526037666401     
 -0.13444893226808474     
 -0.13394420676308538     
 -0.17388685718371100     
 -0.17400880064328703     
 -0.17140810031947931     
 -0.17060651419459275     
 -0.16936983899275940     
 -0.16805978616386444     
 -0.16662533750988642     
 -0.16504734908092419     
 -0.16330744304620928     
 -0.16137791593852902     
 -0.15922702308354744     
 -0.15681683474860611     
 -0.15410524823869964     
 -0.15104253077049820     
 -0.14756856072595684     
 -0.14363061203120925     
 -0.13925546813592810     
 -0.13443480188449725     
 -0.12915830303974085     
 -0.12258497039534384     
 -0.12209131322291074     
 -0.17200260603776801     
 -0.17209579430449159     
 -0.16909712126296092     
 -0.16778264174271679     
 -0.16606550765810929     
 -0.16423923880617372     
 -0.16226552364178334     
 -0.16012253214221986     
 -0.15778443652449439     
 -0.15522140067151910     
 -0.15239703643769406     
 -0.14926677225406557     
 -0.14577756521634366     
 -0.14191347331850249     
 -0.13770219165142702     
 -0.13311049625054505     
 -0.12809866965662509     
 -0.12262178930474216     
 -0.11665313931483955     
 -0.10956171000455210     
 -0.10904812654509599     
 -0.16929463655335159     
 -0.16927863278096553     
 -0.16581147921408460     
 -0.16387108148317001     
 -0.16157380642032451     
 -0.15913622855997822     
 -0.15652443695785156     
 -0.15371515633071145     
 -0.15067891417954851     
 -0.14737617677827428     
 -0.14377488792921631     
 -0.13990436357206670     
 -0.13576298287345245     
 -0.13131321084058883     
 -0.12651988228289973     
 -0.12133572082703394     
 -0.11572566882970328     
 -0.10963037108309800     
 -0.10272877342564204     
  -9.4771948768130554E-002
  -9.4176567432221664E-002
 -0.16543560486498746     
 -0.16525138645992427     
 -0.16125813608619183     
 -0.15858254723486212     
 -0.15558812777796896     
 -0.15242550429196378     
 -0.14906216776938122     
 -0.14546807381605587     
 -0.14165854531346539     
 -0.13767140926699953     
 -0.13348226256365808     
 -0.12906305459340223     
 -0.12438001018544123     
 -0.11939050650846060     
 -0.11407435326097955     
 -0.10832246807119668     
 -0.10186470230676598     
  -9.4897923477116827E-002
  -8.7467842144805949E-002
  -7.9180124296892918E-002
  -7.8590345347945331E-002
 -0.16006530807586175     
 -0.15970002907447300     
 -0.15507932159773255     
 -0.15153969633546988     
 -0.14771133270246997     
 -0.14369944120397476     
 -0.13956707826702372     
 -0.13532441281264182     
 -0.13094990439365584     
 -0.12642386467275635     
 -0.12171384724763405     
 -0.11679863172921691     
 -0.11164782342974941     
 -0.10605641565411997     
  -9.9975111813943779E-002
  -9.3518809991527618E-002
  -8.6721119786556278E-002
  -7.9446798598744234E-002
  -7.1434667260601728E-002
  -6.2669921661258704E-002
  -6.2065462317582823E-002
 -0.15270866342452313     
 -0.15222538754701509     
 -0.14681598205485083     
 -0.14230732197943693     
 -0.13769175399689232     
 -0.13302962703392127     
 -0.12830894972024179     
 -0.12351196245236196     
 -0.11862060940018558     
 -0.11363190835778063     
 -0.10844276613338680     
 -0.10284358676354459     
  -9.7009213608804587E-002
  -9.0947479798507092E-002
  -8.4695702518911425E-002
  -7.7972104762209990E-002
  -7.0760310990897426E-002
  -6.3115313070876963E-002
  -5.5156893559131212E-002
  -4.6417652257888874E-002
  -4.5904803576744729E-002
 -0.14284202521657913     
 -0.14236779942448888     
 -0.13628400613707636     
 -0.13104140507865203     
 -0.12577751803704462     
 -0.12051728709421500     
 -0.11527480805026431     
 -0.11000136115793990     
 -0.10446491744892421     
  -9.8794659527126599E-002
  -9.3043969278666178E-002
  -8.7233067288107258E-002
  -8.1315439138600551E-002
  -7.4958026277037168E-002
  -6.8377777673136395E-002
  -6.1542614008154264E-002
  -5.4560584018013975E-002
  -4.7016733094098921E-002
  -3.8942623038309435E-002
  -3.0368969909886530E-002
  -3.0007879903814143E-002
 -0.13081056903873667     
 -0.13032847860258479     
 -0.12368301471162887     
 -0.11775671274667916     
 -0.11192888612122304     
 -0.10601223884649304     
 -0.10001616148392914     
  -9.4093087617172860E-002
  -8.8269998907997221E-002
  -8.2541398516375028E-002
  -7.6538880537033185E-002
  -7.0477250410598033E-002
  -6.4334933689734669E-002
  -5.8135856459952520E-002
  -5.1907624470467040E-002
  -4.5234076950162155E-002
  -3.8286835393849618E-002
  -3.1092456083489574E-002
  -2.3414724385727285E-002
  -1.5158495411655624E-002
  -1.4940896910060127E-002
 -0.11660863175061137     
 -0.11610800649759682     
 -0.10896599211136142     