# vtk DataFile Version 2.0
3D Unstructured Grid of Linear Triangles
ASCII
DATASET UNSTRUCTURED_GRID
FIELD FieldData  1
TIME 1 1 double
        7200.00000
POINTS     7056 float
      0.00000000E+00  1.00000000E+01  1.00000000E+00
      5.00000000E-01  1.00000000E+01  9.93333333E-01
      1.00000000E+00  1.00000000E+01  9.83333333E-01
      1.50000000E+00  1.00000000E+01  9.73333333E-01
      2.00000000E+00  1.00000000E+01  9.63333333E-01
      2.50000000E+00  1.00000000E+01  9.53333333E-01
      3.00000000E+00  1.00000000E+01  9.43333333E-01
      3.50000000E+00  1.00000000E+01  9.33333333E-01
      4.00000000E+00  1.00000000E+01  9.23333333E-01
      4.50000000E+00  1.00000000E+01  9.13333333E-01
      5.00000000E+00  1.00000000E+01  9.03333333E-01
      5.50000000E+00  1.00000000E+01  8.93333333E-01
      6.00000000E+00  1.00000000E+01  8.83333333E-01
      6.50000000E+00  1.00000000E+01  8.73333333E-01
      7.00000000E+00  1.00000000E+01  8.63333333E-01
      7.50000000E+00  1.00000000E+01  8.53333333E-01
      8.00000000E+00  1.00000000E+01  8.43333333E-01
      8.50000000E+00  1.00000000E+01  8.33333333E-01
      9.00000000E+00  1.00000000E+01  8.23333333E-01
      9.50000000E+00  1.00000000E+01  8.13333333E-01
      1.00000000E+01  1.00000000E+01  8.10000000E-01
      0.00000000E+00  9.50000000E+00  9.83333333E-01
      5.00000000E-01  9.50000000E+00  9.82500000E-01
      1.00000000E+00  9.50000000E+00  9.72500000E-01
      1.50000000E+00  9.50000000E+00  9.62500000E-01
      2.00000000E+00  9.50000000E+00  9.52500000E-01
      2.50000000E+00  9.50000000E+00  9.42500000E-01
      3.00000000E+00  9.50000000E+00  9.32500000E-01
      3.50000000E+00  9.50000000E+00  9.22500000E-01
      4.00000000E+00  9.50000000E+00  9.12500000E-01
      4.50000000E+00  9.50000000E+00  9.02500000E-01
      5.00000000E+00  9.50000000E+00  8.92500000E-01
      5.50000000E+00  9.50000000E+00  8.82500000E-01
      6.00000000E+00  9.50000000E+00  8.72500000E-01
      6.50000000E+00  9.50000000E+00  8.62500000E-01
      7.00000000E+00  9.50000000E+00  8.52500000E-01
      7.50000000E+00  9.50000000E+00  8.42500000E-01
      8.00000000E+00  9.50000000E+00  8.32500000E-01
      8.50000000E+00  9.50000000E+00  8.22500000E-01
      9.00000000E+00  9.50000000E+00  8.12500000E-01
      9.50000000E+00  9.50000000E+00  8.02500000E-01
      1.00000000E+01  9.50000000E+00  8.01666667E-01
      0.00000000E+00  9.00000000E+00  9.58333333E-01
      5.00000000E-01  9.00000000E+00  9.57500000E-01
      1.00000000E+00  9.00000000E+00  9.47500000E-01
      1.50000000E+00  9.00000000E+00  9.37500000E-01
      2.00000000E+00  9.00000000E+00  9.27500000E-01
      2.50000000E+00  9.00000000E+00  9.17500000E-01
      3.00000000E+00  9.00000000E+00  9.07500000E-01
      3.50000000E+00  9.00000000E+00  8.97500000E-01
      4.00000000E+00  9.00000000E+00  8.87500000E-01
      4.50000000E+00  9.00000000E+00  8.77500000E-01
      5.00000000E+00  9.00000000E+00  8.67500000E-01
      5.50000000E+00  9.00000000E+00  8.57500000E-01
      6.00000000E+00  9.00000000E+00  8.47500000E-01
      6.50000000E+00  9.00000000E+00  8.37500000E-01
      7.00000000E+00  9.00000000E+00  8.27500000E-01
      7.50000000E+00  9.00000000E+00  8.17500000E-01
      8.00000000E+00  9.00000000E+00  8.07500000E-01
      8.50000000E+00  9.00000000E+00  7.97500000E-01
      9.00000000E+00  9.00000000E+00  7.87500000E-01
      9.50000000E+00  9.00000000E+00  7.77500000E-01
      1.00000000E+01  9.00000000E+00  7.76666667E-01
      0.00000000E+00  8.50000000E+00  9.33333333E-01
      5.00000000E-01  8.50000000E+00  9.32500000E-01
      1.00000000E+00  8.50000000E+00  9.22500000E-01
      1.50000000E+00  8.50000000E+00  9.12500000E-01
      2.00000000E+00  8.50000000E+00  9.02500000E-01
      2.50000000E+00  8.50000000E+00  8.92500000E-01
      3.00000000E+00  8.50000000E+00  8.82500000E-01
      3.50000000E+00  8.50000000E+00  8.72500000E-01
      4.00000000E+00  8.50000000E+00  8.62500000E-01
      4.50000000E+00  8.50000000E+00  8.52500000E-01
      5.00000000E+00  8.50000000E+00  8.42500000E-01
      5.50000000E+00  8.50000000E+00  8.32500000E-01
      6.00000000E+00  8.50000000E+00  8.22500000E-01
      6.50000000E+00  8.50000000E+00  8.12500000E-01
      7.00000000E+00  8.50000000E+00  8.02500000E-01
      7.50000000E+00  8.50000000E+00  7.92500000E-01
      8.00000000E+00  8.50000000E+00  7.82500000E-01
      8.50000000E+00  8.50000000E+00  7.72500000E-01
      9.00000000E+00  8.50000000E+00  7.62500000E-01
      9.50000000E+00  8.50000000E+00  7.52500000E-01
      1.00000000E+01  8.50000000E+00  7.51666667E-01
      0.00000000E+00  8.00000000E+00  9.08333333E-01
      5.00000000E-01  8.00000000E+00  9.07500000E-01
      1.00000000E+00  8.00000000E+00  8.97500000E-01
      1.50000000E+00  8.00000000E+00  8.87500000E-01
      2.00000000E+00  8.00000000E+00  8.77500000E-01
      2.50000000E+00  8.00000000E+00  8.67500000E-01
      3.00000000E+00  8.00000000E+00  8.57500000E-01
      3.50000000E+00  8.00000000E+00  8.47500000E-01
      4.00000000E+00  8.00000000E+00  8.37500000E-01
      4.50000000E+00  8.00000000E+00  8.27500000E-01
      5.00000000E+00  8.00000000E+00  8.17500000E-01
      5.50000000E+00  8.00000000E+00  8.07500000E-01
      6.00000000E+00  8.00000000E+00  7.97500000E-01
      6.50000000E+00  8.00000000E+00  7.87500000E-01
      7.00000000E+00  8.00000000E+00  7.77500000E-01
      7.50000000E+00  8.00000000E+00  7.67500000E-01
      8.00000000E+00  8.00000000E+00  7.57500000E-01
      8.50000000E+00  8.00000000E+00  7.47500000E-01
      9.00000000E+00  8.00000000E+00  7.37500000E-01
      9.50000000E+00  8.00000000E+00  7.27500000E-01
      1.00000000E+01  8.00000000E+00  7.26666667E-01
      0.00000000E+00  7.50000000E+00  8.83333333E-01
      5.00000000E-01  7.50000000E+00  8.82500000E-01
      1.00000000E+00  7.50000000E+00  8.72500000E-01
      1.50000000E+00  7.50000000E+00  8.62500000E-01
      2.00000000E+00  7.50000000E+00  8.52500000E-01
      2.50000000E+00  7.50000000E+00  8.42500000E-01
      3.00000000E+00  7.50000000E+00  8.32500000E-01
      3.50000000E+00  7.50000000E+00  8.22500000E-01
      4.00000000E+00  7.50000000E+00  8.12500000E-01
      4.50000000E+00  7.50000000E+00  8.02500000E-01
      5.00000000E+00  7.50000000E+00  7.92500000E-01
      5.50000000E+00  7.50000000E+00  7.82500000E-01
      6.00000000E+00  7.50000000E+00  7.72500000E-01
      6.50000000E+00  7.50000000E+00  7.62500000E-01
      7.00000000E+00  7.50000000E+00  7.52500000E-01
      7.50000000E+00  7.50000000E+00  7.42500000E-01
      8.00000000E+00  7.50000000E+00  7.32500000E-01
      8.50000000E+00  7.50000000E+00  7.22500000E-01
      9.00000000E+00  7.50000000E+00  7.12500000E-01
      9.50000000E+00  7.50000000E+00  7.02500000E-01
      1.00000000E+01  7.50000000E+00  7.01666667E-01
      0.00000000E+00  7.00000000E+00  8.58333333E-01
      5.00000000E-01  7.00000000E+00  8.57500000E-01
      1.00000000E+00  7.00000000E+00  8.47500000E-01
      1.50000000E+00  7.00000000E+00  8.37500000E-01
      2.00000000E+00  7.00000000E+00  8.27500000E-01
      2.50000000E+00  7.00000000E+00  8.17500000E-01
      3.00000000E+00  7.00000000E+00  8.07500000E-01
      3.50000000E+00  7.00000000E+00  7.97500000E-01
      4.00000000E+00  7.00000000E+00  7.87500000E-01
      4.50000000E+00  7.00000000E+00  7.77500000E-01
      5.00000000E+00  7.00000000E+00  7.67500000E-01
      5.50000000E+00  7.00000000E+00  7.57500000E-01
      6.00000000E+00  7.00000000E+00  7.47500000E-01
      6.50000000E+00  7.00000000E+00  7.37500000E-01
      7.00000000E+00  7.00000000E+00  7.27500000E-01
      7.50000000E+00  7.00000000E+00  7.17500000E-01
      8.00000000E+00  7.00000000E+00  7.07500000E-01
      8.50000000E+00  7.00000000E+00  6.97500000E-01
      9.00000000E+00  7.00000000E+00  6.87500000E-01
      9.50000000E+00  7.00000000E+00  6.77500000E-01
      1.00000000E+01  7.00000000E+00  6.76666667E-01
      0.00000000E+00  6.50000000E+00  8.33333333E-01
      5.00000000E-01  6.50000000E+00  8.32500000E-01
      1.00000000E+00  6.50000000E+00  8.22500000E-01
      1.50000000E+00  6.50000000E+00  8.12500000E-01
      2.00000000E+00  6.50000000E+00  8.02500000E-01
      2.50000000E+00  6.50000000E+00  7.92500000E-01
      3.00000000E+00  6.50000000E+00  7.82500000E-01
      3.50000000E+00  6.50000000E+00  7.72500000E-01
      4.00000000E+00  6.50000000E+00  7.62500000E-01
      4.50000000E+00  6.50000000E+00  7.52500000E-01
      5.00000000E+00  6.50000000E+00  7.42500000E-01
      5.50000000E+00  6.50000000E+00  7.32500000E-01
      6.00000000E+00  6.50000000E+00  7.22500000E-01
      6.50000000E+00  6.50000000E+00  7.12500000E-01
      7.00000000E+00  6.50000000E+00  7.02500000E-01
      7.50000000E+00  6.50000000E+00  6.92500000E-01
      8.00000000E+00  6.50000000E+00  6.82500000E-01
      8.50000000E+00  6.50000000E+00  6.72500000E-01
      9.00000000E+00  6.50000000E+00  6.62500000E-01
      9.50000000E+00  6.50000000E+00  6.52500000E-01
      1.00000000E+01  6.50000000E+00  6.51666667E-01
      0.00000000E+00  6.00000000E+00  8.08333333E-01
      5.00000000E-01  6.00000000E+00  8.07500000E-01
      1.00000000E+00  6.00000000E+00  7.97500000E-01
      1.50000000E+00  6.00000000E+00  7.87500000E-01
      2.00000000E+00  6.00000000E+00  7.77500000E-01
      2.50000000E+00  6.00000000E+00  7.67500000E-01
      3.00000000E+00  6.00000000E+00  7.57500000E-01
      3.50000000E+00  6.00000000E+00  7.47500000E-01
      4.00000000E+00  6.00000000E+00  7.37500000E-01
      4.50000000E+00  6.00000000E+00  7.27500000E-01
      5.00000000E+00  6.00000000E+00  7.17500000E-01
      5.50000000E+00  6.00000000E+00  7.07500000E-01
      6.00000000E+00  6.00000000E+00  6.97500000E-01
      6.50000000E+00  6.00000000E+00  6.87500000E-01
      7.00000000E+00  6.00000000E+00  6.77500000E-01
      7.50000000E+00  6.00000000E+00  6.67500000E-01
      8.00000000E+00  6.00000000E+00  6.57500000E-01
[...]
POINT_DATA     7056
SCALARS pressure float
LOOKUP_TABLE default
 -0.21725756059474571     
 -0.21543039238640813     
 -0.21525861097768245     
 -0.21504395516921029     
 -0.21480738624554430     
 -0.21457718114624191     
 -0.21434280135303693     
 -0.21409312627372681     
 -0.21385528477192087     
 -0.21360945376865700     
 -0.21336582808631105     
 -0.21311100565426935     
 -0.21283022735075888     
 -0.21251968713941402     
 -0.21214772527537951     
 -0.21168915202744706     
 -0.21111117877335225     
 -0.21033188867106375     
 -0.20968183975455196     
 -0.20690259398691582     
 -0.20714626676468273     
 -0.21463941159204825     
 -0.21223134926829806     
 -0.21147433364444296     
 -0.21170412663910540     
 -0.21169189785630130     
 -0.21169017509381879     
 -0.21168123478042050     
 -0.21166499116845053     
 -0.21163866267658266     
 -0.21158545902550943     
 -0.21150486562900295     
 -0.21137516437328741     
 -0.21118441882195962     
 -0.21091018924419794     
 -0.21052383468500976     
 -0.20999766149445881     
 -0.20929286010761422     
 -0.20834724599052334     
 -0.20731752371784945     
 -0.20464922120856813     
 -0.20514789913422887     
 -0.21371712863185166     
 -0.21153463598605982     
 -0.21050542876631806     
 -0.21072136313072404     
 -0.21048543778847695     
 -0.21029995345362684     
 -0.21010513466735944     
 -0.20989832711476239     
 -0.20966197142931176     
 -0.20938644670195453     
 -0.20905548445451813     
 -0.20865125521467215     
 -0.20815147725983354     
 -0.20753157769844668     
 -0.20675728496397422     
 -0.20579310584123378     
 -0.20460004085161057     
 -0.20312300782196918     
 -0.20149478063332943     
 -0.19822892973217543     
 -0.19767237026969001     
 -0.21284167718122374     
 -0.21160173817632891     
 -0.21029016516190457     
 -0.21045493404025514     
 -0.21012988549899439     
 -0.20984331425395328     
 -0.20952134618723023     
 -0.20915481698769514     
 -0.20872582670795442     
 -0.20822130740396172     
 -0.20762005195004873     
 -0.20690160368464103     
 -0.20603834640748347     
 -0.20500154851960400     
 -0.20375676268995052     
 -0.20226743760127761     
 -0.20049071267387988     
 -0.19837440875938125     
 -0.19601059322961803     
 -0.19201830354186147     
 -0.19148797059609241     
 -0.21189205970546979     
 -0.21131467048921154     
 -0.20958843515854353     
 -0.20961046421704393     
 -0.20913255880357945     
 -0.20865880428576575     
 -0.20812125129059186     
 -0.20750599561412980     
 -0.20679902488517973     
 -0.20598183989752136     
 -0.20503106701942489     
 -0.20392267740854658     
 -0.20262561582085295     
 -0.20110512880418446     
 -0.19932141046514940     
 -0.19722977468015437     
 -0.19478298770772723     
 -0.19192940079474155     
 -0.18874717899019750     
 -0.18399486086839401     
 -0.18331896797640518     
 -0.21088194262745105     
 -0.21078016723988138     
 -0.20866301238959545     
 -0.20845923653126322     
 -0.20774220109588115     
 -0.20699274234202755     
 -0.20615306515189608     
 -0.20520697584310041     
 -0.20413780526315375     
 -0.20292192313362206     
 -0.20153271520316882     
 -0.19993839847368192     
 -0.19810088101420756     
 -0.19597829356806942     
 -0.19352477681838021     
 -0.19069973467586743     
 -0.18748039741797179     
 -0.18383842899739108     
 -0.17981477688280567     
 -0.17426223130944837     
 -0.17347445910239753     
 -0.20964696211765219     
 -0.20979386823316851     
 -0.20729819596548088     
 -0.20675429027075715     
 -0.20571342318921068     
 -0.20460749164322309     
 -0.20338296516723645     
 -0.20202031683355484     
 -0.20049552973727675     
 -0.19877905066405208     
 -0.19683641545616273     
 -0.19462884420414997     
 -0.19211657816160893     
 -0.18926982180294924     
 -0.18607021899570489     
 -0.18248229889789672     
 -0.17846656713781836     
 -0.17398131803733410     
 -0.16904235966840656     
 -0.16263057558079119     
 -0.16182953680253870     
 -0.20795414920885713     
 -0.20815463542187396     
 -0.20528270165753332     
 -0.20428982978412918     
 -0.20283817063751663     
 -0.20128187274169021     
 -0.19956898343735091     
 -0.19767311131789495     
 -0.19556393900694485     
 -0.19320787540816148     
 -0.19057539722998956     
 -0.18765157122408452     
 -0.18441319555505956     
 -0.18082358845486285     
 -0.17684539205044900     
 -0.17243782193164858     
 -0.16755901726679931     
 -0.16212923863180312     
 -0.15615042413143013     
 -0.14896826784822878     
 -0.14824270322106270     
 -0.20552359178255963     
 -0.20564675882111000     
 -0.20236961104547363     
 -0.20081170553457775     
 -0.19882958860655089     
 -0.19668888415632757     
 -0.19434257473045305     
 -0.19176531865080565     
 -0.18894411000255068     
 -0.18587080310083964     
 -0.18251788804405569     
 -0.17885445996520999     
 -0.17484650088738812     
 -0.17045809250911237     
 -0.16563941839708765     
 -0.16030034904249066     
 -0.15449074449633024     
 -0.14826400655243011     
 -0.14161398396965139     
 -0.13394962753005088     
 -0.13325242410965862     
 -0.20202624719519047     
 -0.20198604292949326     
 -0.19821808377164257     
 -0.19594225219252301     
 -0.19326681889561551     
 -0.19038927450270393     
 -0.18730039614525984     
 -0.18398811203849566     
 -0.18042948080277624     
 -0.17660032796422467     
 -0.17247284309653413     
 -0.16801573796374181     
 -0.16316286452991360     
 -0.15786783564358770     
 -0.15222529970119983     
 -0.14622541685842308     
 -0.13984378717780679     
 -0.13305266167904609     
 -0.12583684293806746     
 -0.11783834577527851     
 -0.11718649566006240     
 -0.19701561623293670     
 -0.19675421639509719     
 -0.19235995443234152     
 -0.18922416059440703     
 -0.18576500610022273     
 -0.18211205445843553     
 -0.17824265531129097     
 -0.17413877544052767     
 -0.16978214681957882     
 -0.16513262725275485     
 -0.16012108385531620     
 -0.15482025442634328     
 -0.14926290722525623     
 -0.14342220234002051     
 -0.13727682900863072     
 -0.13078798693249857     
 -0.12396252600335272     
 -0.11678507830962172     
 -0.10890104659595362     
 -0.10024043671925457     
  -9.9549999621696625E-002
 -0.18998332531176185     
 -0.18948757012819692     
 -0.18443770201630721     
 -0.18041422027265835     
 -0.17611287424268143     
 -0.17161395480060970     
 -0.16689515537157928     
 -0.16189691608515117     
 -0.15664426205325477     
 -0.15122707321227105     
 -0.14563005786936545     
 -0.13983649514896249     
 -0.13382172555547633     
 -0.12756357695663786     
 -0.12108503402440597     
 -0.11422492241159182     
 -0.10685203346866612     
  -9.9068521500741358E-002
  -9.0934693160828042E-002
  -8.2028048469116335E-002
  -8.1389707406333570E-002
 -0.18068000537079493     
 -0.17997805109660608     
 -0.17422126836061805     
 -0.16924187982051100     
 -0.16400504535829738     
 -0.15852676556648848     
 -0.15293766858516397     
 -0.14725496683581743     
 -0.14146473186817907     
 -0.13555960951780840     
 -0.12952308812780353     
 -0.12338712914949321     
 -0.11711817569798580     
 -0.11041934143773113     
 -0.10346217357643597     
  -9.6260725816666379E-002
  -8.8849167829793851E-002
  -8.0852184735432792E-002
  -7.2408168997398298E-002
  -6.3411008199059316E-002
  -6.2833127180848533E-002
 -0.16879157642286546     
 -0.16798716684545409     
 -0.16137196900952630     
 -0.15534957492107906     
 -0.14927434752309632     
 -0.14316282950882195     
 -0.13701063567572350     
 -0.13081348486550701     
 -0.12461211816422885     
 -0.11841293628653396     
 -0.11195636952317095     
 -0.10537111109957906     
  -9.8708066367004715E-002
  -9.1961688531503202E-002
  -8.5010902672930919E-002
  -7.7738408691478508E-002
  -7.0166488683367251E-002
  -6.2319968741689220E-002
  -5.4045880763025494E-002
  -4.5135559519422094E-002
  -4.4660673201000436E-002
 -0.15394671278157923     
 -0.15321552005609718     
 -0.14597249194147005     
 -0.13927764454375274     
 -0.13258786020235713     
 -0.12595631221979586     
 -0.11941941589574580     
 -0.11274899542189575     
 -0.10601653435341166     
  -9.9342734924879189E-002
  -9.2755127739628532E-002
  -8.6197958635320482E-002
  -7.9505527104544407E-002
  -7.2737680412844008E-002
  -6.5887711356862624E-002
  -5.8956083590002976E-002
  -5.1685366777139384E-002
  -4.4079125367668136E-002
  -3.6077790840434144E-002
  -2.7602527471150898E-002
  -2.7345704080567964E-002
 -0.13702995984921615     
 -0.13633798117398246     
 -0.12858960517284829     
 -0.12136281985855450     
 -0.11415067692443140     
 -0.10688078764770982     
  -9.9758437090079921E-002
  -9.2831366680940261E-002
  -8.6010531052950007E-002
  -7.9179785472822395E-002
  -7.2480016104065445E-002
  -6.6005469722355006E-002
  -5.9728567530187203E-002
  -5.3324100565537137E-002
  -4.6826835887326314E-002
  -4.0197826007144548E-002
  -3.3527025724072741E-002
  -2.6486260622590838E-002
  -1.8726684266468369E-002
  -1.1550264647817176E-002
  -1.1712551788035248E-002
 -0.11833603886138123     
 -0.11767244998425395     
 -0.10929360905403404     
 -0.10131692289633944     
  -9.3633239610516672E-002
  -8.6167210385930004E-002
  -7.8775462061526219E-002
  -7.1636245056918346E-002
  -6.4787569492591179E-002
  -5.8178606111116818E-002
  -5.1589101932298050E-002
  -4.5437548245279374E-002
  -3.9647740390204647E-002
  -3.3951931823078464E-002
  -2.8066928242574563E-002
  -2.1721211013385592E-002
  -1.6080637434138522E-002
  -9.9827543978588083E-003
   1.0851429846134887E-003
   5.9507860750693991E-004
   5.3710198424321161E-006
  -9.7311625472181626E-002
  -9.6697467881561985E-002
  -8.8132070525481263E-002
  -7.9716942559964324E-002
  -7.1645625156890783E-002
  -6.4015991374404529E-002
  -5.6761116736945311E-002
  -4.9737271572911315E-002
  -4.2977862300206678E-002
  -3.6611258649404614E-002
  -2.9857512520924976E-002
  -2.4306032202466195E-002
  -1.9613566700048688E-002
  -1.5083666560599483E-002
  -1.0005374489542206E-002
   9.9443513890660348E-005
   1.1964580299399727E-003
   2.3599738875967422E-003
   4.5811089687367241E-003
   3.8279878201358782E-003
   1.1436601925987160E-003
  -7.4866328767416293E-002
  -7.4250719197591894E-002
  -6.5307350417117285E-002
  -5.6845602848362410E-002
  -4.8689208722056176E-002
  -4.1052388999850205E-002
  -3.4020191591636079E-002
  -2.7355930416586911E-002
  -1.9370677198838306E-002
  -1.4118321056664379E-002
   1.1853131160878113E-004
   1.1270386797593982E-003
   2.2620862223440949E-003
   3.3056886740519139E-003
   4.3516966442475264E-003
   5.3525135487648310E-003
   6.6881155708594696E-003
   8.4631679091584800E-003
   1.0816640017403775E-002
   8.4943707307267892E-003
   4.3711133991048553E-003
  -5.1167688781615678E-002
  -5.0572990441291904E-002
  -4.1479653753238643E-002
  -3.2967257892325907E-002
  -2.4867489802686708E-002
  -1.7461459640622422E-002
  -1.0817371711763456E-002
  -5.3175215415434251E-003
   1.1179841364042797E-005
   9.9033850139657910E-004
   2.0689168523071381E-003
   3.2463297592150511E-003
   4.7359304188032986E-003
   5.9955126519150009E-003
   7.2134084552009214E-003
   8.3620953517683574E-003
   9.3115884822292366E-003
   1.0092537171667911E-002
   1.1185443993442585E-002
   1.0761228011369053E-002
   7.3202711760324175E-003
  -4.3173439965734008E-002
  -4.0109087402411578E-002
  -3.1055903867954652E-002
  -2.2477542447646763E-002
  -1.4484158186947906E-002
  -7.1963591697270244E-003
  -1.1610413970674016E-003
   4.8223639087261507E-005
   1.0625635410293878E-004
   1.0645243116132064E-003
   3.3957931798495149E-003
   4.6330387768047489E-003
   5.3283630305396065E-003
   5.8184448826934781E-003
   6.2324143744234605E-003
   6.6163420897481940E-003
   7.0142917000153406E-003
   7.4682147470221602E-003
   8.0743205959306810E-003
   8.6680067978687630E-003
   8.7913210067451647E-003
 -0.21139527350699625     
 -0.20960792896523786     
 -0.20943677296689187     
 -0.20922208987439689     
 -0.20898520364487308     
 -0.20875445996613448     
 -0.20851934272703990     
 -0.20826876776027950     
 -0.20802986631318107     
 -0.20778287750438421     
 -0.20753803721439254     
 -0.20728200786760489     
 -0.20700005758676190     
 -0.20668835079289422     
 -0.20631522400944735     
 -0.20585545693181634     
 -0.20527621301154525     
 -0.20449568890982986     
 -0.20384343453372752     
 -0.20106155374675802     
 -0.20138379457375993     
 -0.20882531400772683     
 -0.20648408558885967     
 -0.20572804476884771     
 -0.20595730016380639     
 -0.20594453793860576     
 -0.20594227232121934     
 -0.20593281706597188     
 -0.20591609559687088     
 -0.20588934045505450     
 -0.20583578875444011     
 -0.20575490154108372     
 -0.20562491591798937     
 -0.20543380496906660     
 -0.20515906345375798     
 -0.20477199014640859     
 -0.20424482205055983     
 -0.20353869912327463     
 -0.20259152182608603     
 -0.20155921316011663     
 -0.19888856433998314     
 -0.19946359165380370     
 -0.20790545019553786     
 -0.20579247807091197     
 -0.20476581591519757     
 -0.20498091259571499     
 -0.20474433452655044     
 -0.20455809667510536     
 -0.20436258238691260     
 -0.20415513330367033     
 -0.20391817671449602     
 -0.20364202717274404     
 -0.20331035601736921     
 -0.20290526987770061     
 -0.20240443368960542     
 -0.20178322104609203     
 -0.20100732701964763     
 -0.20004123491345049     
 -0.19884593879773599     
 -0.19736647437442356     
 -0.19573481629260833     
 -0.19246644497348950     
 -0.19198587318118046     
 -0.20702756591837040     
 -0.20585799392818868     
 -0.20454882641975258     
 -0.20471267960027265     
 -0.20438718435532133     
 -0.20410010092122263     
 -0.20377766317689011     
 -0.20341060635370461     
 -0.20298097041186972     
 -0.20247562124622140     
 -0.20187330518966748     
 -0.20115351301082512     
 -0.20028859554847936     
 -0.19924979725409001     
 -0.19800267190471504     
 -0.19651068404656782     
 -0.19473101400338358     
 -0.19261158816494403     
 -0.19024366473396320     
 -0.18624871175835972     
 -0.18579235369636990     
 -0.20607472546990230     
 -0.20556995191821323     
 -0.20384565068493479     
 -0.20386702684445476     
 -0.20338884836296553     
 -0.20291457506748134     
 -0.20237637072174638     
 -0.20176025605561312     
 -0.20105216693383826     
 -0.20023356203103171     
 -0.19928104289451323     
 -0.19817056097669369     
 -0.19687106449139077     
 -0.19534781641396001     
 -0.19356103656395571     
 -0.19146604898070976     
 -0.18901559369500928     
 -0.18615779272028699     
 -0.18296933120420691     
 -0.17821256935162499     
 -0.17760684590966080     
 -0.20506156564021027     
 -0.20503510893758850     
 -0.20291902990938129     
 -0.20271458847309695     
 -0.20199701307774076     
 -0.20124662743301602     
 -0.20040575805376823     
 -0.19945816170477759     
 -0.19838714667959273     
 -0.19716907966521349     
 -0.19577735051198361     
 -0.19418019000480005     
 -0.19233951534215502     
 -0.19021343967496929     
 -0.18775600926714714     
 -0.18492611222272579     
 -0.18170055426087778     
 -0.17805188111142653     
 -0.17402045083374909     
 -0.16846298926511480     
 -0.16773937996903798     
 -0.20382387143522018     
 -0.20404811523417382     
 -0.20155233015738894     
 -0.20100735943755255     
 -0.19996532318489996     
 -0.19885776220061580     
 -0.19763128146911779     
 -0.19626634095128706     
 -0.19473893619183069     
 -0.19301952209087972     
 -0.19107362222710403     
 -0.18886241500955261     
 -0.18634586546640328     
 -0.18349352070899347     
 -0.18028735471405880     
 -0.17669240358702859     
 -0.17266912250292282     
 -0.16817593082808940     
 -0.16322823364738878     
 -0.15681219043423600     
 -0.15606855497304109     
 -0.20212813437228261     
 -0.20240657774070153     
 -0.19953333871495371     
 -0.19853867923615906     
 -0.19708503112847292     
 -0.19552630950459313     
 -0.19381069026027464     
 -0.19191176668266074     
 -0.18979919345748059     
 -0.18743924620328783     
 -0.18480186381912833     
 -0.18187181878354866     
 -0.17862667295038478     
 -0.17502976003287754     
 -0.17104374431035713     
 -0.16662790345759487     
 -0.16174081931534606     
 -0.15630381951044073     
 -0.15031365003819433     
 -0.14312252461033728     
 -0.14244628767984641     
 -0.19969362225265774     
 -0.19989390046426714     
 -0.19661455108051512     
 -0.19505400789915386     
 -0.19306909718980922     
 -0.19092518978115383     
 -0.18857529142253351     
 -0.18599368857737397     
 -0.18316675752002939     
 -0.18008691769282087     
 -0.17672697109864186     
 -0.17305595753928790     
 -0.16903995009182138     
 -0.16464307841498801     
 -0.15981644524567123     
 -0.15446954621225947     
 -0.14864804703636433     
 -0.14240920355479564     
 -0.13574684048797145     
 -0.12807404577084622     
 -0.12741789447134352     
 -0.19619072270918578     
 -0.19622564610772258     
 -0.19245495923531822     
 -0.19017559938901712     
 -0.18749633570219731     
 -0.18461372723776512     
 -0.18151854051657240     
 -0.17819945008629465     
 -0.17463346410349054     
 -0.17079644516003054     
 -0.16666061671101137     
 -0.16219518258752522     
 -0.15733492641850547     
 -0.15202978746744733     
 -0.14637546029954518     
 -0.14036387391194527     
 -0.13397058632168982     
 -0.12716802167962477     
 -0.11993956263512077     
 -0.11193292950866139     
 -0.11131339092372623     
 -0.19117269575570470     
 -0.19098367193697696     
 -0.18658571187414838     
 -0.18344388466265751     
 -0.17997815533161940     
 -0.17631807766522867     
 -0.17244098605592417     
 -0.16832891803691202     
 -0.16396379464136007     
 -0.15930647612496893     
 -0.15428663958611982     
 -0.14897416149567730     
 -0.14340522023640639     
 -0.13755307559863467     
 -0.13139645581370732     
 -0.12489662269973610     
 -0.11805941614444943     
 -0.11087242267310275     
 -0.10297825604249500     
  -9.4310684675596029E-002
  -9.3644646919082655E-002
 -0.18412934491218985     
 -0.18370153225707134     
 -0.17864557129264630     
 -0.17461447042370551     
 -0.17030517226702024     
 -0.16579775691864712     
 -0.16107077199616743     
 -0.15606510025415399     
 -0.15080120581626086     
 -0.14537230959906769     
 -0.13976394293339853     
 -0.13395921897547269     
 -0.12793373455010953     
 -0.12166434125446016     
 -0.11517464699987136     
 -0.10830779298412926     
 -0.10092491978065408     
  -9.3130732921837892E-002
  -8.4985386067258056E-002
  -7.6074304161002179E-002
  -7.5452574886502907E-002
 -0.17481154274169106     
 -0.17417106261435128     
 -0.16840730926467373     
 -0.16341931665557399     
 -0.15817497817155940     
 -0.15268684661337414     
 -0.14708586805336465     
 -0.14139156016149690     
 -0.13558997155860297     
 -0.12967383922717246     
 -0.12362627046504597     
 -0.11747925046561723     
 -0.11120161193324286     
 -0.10449468925826563     
  -9.7528413735525343E-002
  -9.0317553494082214E-002
  -8.2897392238147363E-002
  -7.4892365135314859E-002
  -6.6440680293703036E-002
  -5.7438822789455529E-002
  -5.6870059019679356E-002
 -0.16290686813923472     
 -0.16215635874077036     
 -0.15553566711791789     
 -0.14950127912115974     
 -0.14341401298475739     
 -0.13729092333870307     
 -0.13112734675875767     
 -0.12491891859747890     
 -0.11870604596489161     
 -0.11249670871726795     
 -0.10603316539859896     
  -9.9438854271102231E-002
  -9.2766639525385830E-002
  -8.6011370952006283E-002
  -7.9054465245158537E-002
  -7.1774957522773575E-002
  -6.4196313490650900E-002
  -5.6343392301037916E-002
  -4.8064129707342876E-002
  -3.9151260615351763E-002
  -3.8681049445222306E-002
 -0.14804304623937767     
 -0.14735685181331148     
 -0.14010414462133794     