# vtk DataFile Version 2.0
3D Unstructured Grid of Linear Triangles
ASCII
DATASET UNSTRUCTURED_GRID
FIELD FieldData  1
TIME 1 1 double
        3600.00000
POINTS     7056 float
      0.00000000E+00  1.00000000E+01  1.00000000E+00
      5.00000000E-01  1.00000000E+01  9.93333333E-01
      1.00000000E+00  1.00000000E+01  9.83333333E-01
      1.50000000E+00  1.00000000E+01  9.73333333E-01
      2.00000000E+00  1.00000000E+01  9.63333333E-01
      2.50000000E+00  1.00000000E+01  9.53333333E-01
      3.00000000E+00  1.00000000E+01  9.43333333E-01
      3.50000000E+00  1.00000000E+01  9.33333333E-01
      4.00000000E+00  1.00000000E+01  9.23333333E-01
      4.50000000E+00  1.00000000E+01  9.13333333E-01
      5.00000000E+00  1.00000000E+01  9.03333333E-01
      5.50000000E+00  1.00000000E+01  8.93333333E-01
      6.00000000E+00  1.00000000E+01  8.83333333E-01
      6.50000000E+00  1.00000000E+01  8.73333333E-01
      7.00000000E+00  1.00000000E+01  8.63333333E-01
      7.50000000E+00  1.00000000E+01  8.53333333E-01
      8.00000000E+00  1.00000000E+01  8.43333333E-01
      8.50000000E+00  1.00000000E+01  8.33333333E-01
      9.00000000E+00  1.00000000E+01  8.23333333E-01
      9.50000000E+00  1.00000000E+01  8.13333333E-01
      1.00000000E+01  1.00000000E+01  8.10000000E-01
      0.00000000E+00  9.50000000E+00  9.83333333E-01
      5.00000000E-01  9.50000000E+00  9.82500000E-01
      1.00000000E+00  9.50000000E+00  9.72500000E-01
      1.50000000E+00  9.50000000E+00  9.62500000E-01
      2.00000000E+00  9.50000000E+00  9.52500000E-01
      2.50000000E+00  9.50000000E+00  9.42500000E-01
      3.00000000E+00  9.50000000E+00  9.32500000E-01
      3.50000000E+00  9.50000000E+00  9.22500000E-01
      4.00000000E+00  9.50000000E+00  9.12500000E-01
      4.50000000E+00  9.50000000E+00  9.02500000E-01
      5.00000000E+00  9.50000000E+00  8.92500000E-01
      5.50000000E+00  9.50000000E+00  8.82500000E-01
      6.00000000E+00  9.50000000E+00  8.72500000E-01
      6.50000000E+00  9.50000000E+00  8.62500000E-01
      7.00000000E+00  9.50000000E+00  8.52500000E-01
      7.50000000E+00  9.50000000E+00  8.42500000E-01
      8.00000000E+00  9.50000000E+00  8.32500000E-01
      8.50000000E+00  9.50000000E+00  8.22500000E-01
      9.00000000E+00  9.50000000E+00  8.12500000E-01
      9.50000000E+00  9.50000000E+00  8.02500000E-01
      1.00000000E+01  9.50000000E+00  8.01666667E-01
      0.00000000E+00  9.00000000E+00  9.58333333E-01
      5.00000000E-01  9.00000000E+00  9.57500000E-01
      1.00000000E+00  9.00000000E+00  9.47500000E-01
      1.50000000E+00  9.00000000E+00  9.37500000E-01
      2.00000000E+00  9.00000000E+00  9.27500000E-01
      2.50000000E+00  9.00000000E+00  9.17500000E-01
      3.00000000E+00  9.00000000E+00  9.07500000E-01
      3.50000000E+00  9.00000000E+00  8.97500000E-01
      4.00000000E+00  9.00000000E+00  8.87500000E-01
      4.50000000E+00  9.00000000E+00  8.77500000E-01
      5.00000000E+00  9.00000000E+00  8.67500000E-01
      5.50000000E+00  9.00000000E+00  8.57500000E-01
      6.00000000E+00  9.00000000E+00  8.47500000E-01
      6.50000000E+00  9.00000000E+00  8.37500000E-01
      7.00000000E+00  9.00000000E+00  8.27500000E-01
      7.50000000E+00  9.00000000E+00  8.17500000E-01
      8.00000000E+00  9.00000000E+00  8.07500000E-01
      8.50000000E+00  9.00000000E+00  7.97500000E-01
      9.00000000E+00  9.00000000E+00  7.87500000E-01
      9.50000000E+00  9.00000000E+00  7.77500000E-01
      1.00000000E+01  9.00000000E+00  7.76666667E-01
      0.00000000E+00  8.50000000E+00  9.33333333E-01
      5.00000000E-01  8.50000000E+00  9.32500000E-01
      1.00000000E+00  8.50000000E+00  9.22500000E-01
      1.50000000E+00  8.50000000E+00  9.12500000E-01
      2.00000000E+00  8.50000000E+00  9.02500000E-01
      2.50000000E+00  8.50000000E+00  8.92500000E-01
      3.00000000E+00  8.50000000E+00  8.82500000E-01
      3.50000000E+00  8.50000000E+00  8.72500000E-01
      4.00000000E+00  8.50000000E+00  8.62500000E-01
      4.50000000E+00  8.50000000E+00  8.52500000E-01
      5.00000000E+00  8.50000000E+00  8.42500000E-01
      5.50000000E+00  8.50000000E+00  8.32500000E-01
      6.00000000E+00  8.50000000E+00  8.22500000E-01
      6.50000000E+00  8.50000000E+00  8.12500000E-01
      7.00000000E+00  8.50000000E+00  8.02500000E-01
      7.50000000E+00  8.50000000E+00  7.92500000E-01
      8.00000000E+00  8.50000000E+00  7.82500000E-01
      8.50000000E+00  8.50000000E+00  7.72500000E-01
      9.00000000E+00  8.50000000E+00  7.62500000E-01
      9.50000000E+00  8.50000000E+00  7.52500000E-01
      1.00000000E+01  8.50000000E+00  7.51666667E-01
      0.00000000E+00  8.00000000E+00  9.08333333E-01
      5.00000000E-01  8.00000000E+00  9.07500000E-01
      1.00000000E+00  8.00000000E+00  8.97500000E-01
      1.50000000E+00  8.00000000E+00  8.87500000E-01
      2.00000000E+00  8.00000000E+00  8.77500000E-01
      2.50000000E+00  8.00000000E+00  8.67500000E-01
      3.00000000E+00  8.00000000E+00  8.57500000E-01
      3.50000000E+00  8.00000000E+00  8.47500000E-01
      4.00000000E+00  8.00000000E+00  8.37500000E-01
      4.50000000E+00  8.00000000E+00  8.27500000E-01
      5.00000000E+00  8.00000000E+00  8.17500000E-01
      5.50000000E+00  8.00000000E+00  8.07500000E-01
      6.00000000E+00  8.00000000E+00  7.97500000E-01
      6.50000000E+00  8.00000000E+00  7.87500000E-01
      7.00000000E+00  8.00000000E+00  7.77500000E-01
      7.50000000E+00  8.00000000E+00  7.67500000E-01
      8.00000000E+00  8.00000000E+00  7.57500000E-01
      8.50000000E+00  8.00000000E+00  7.47500000E-01
      9.00000000E+00  8.00000000E+00  7.37500000E-01
      9.50000000E+00  8.00000000E+00  7.27500000E-01
      1.00000000E+01  8.00000000E+00  7.26666667E-01
      0.00000000E+00  7.50000000E+00  8.83333333E-01
      5.00000000E-01  7.50000000E+00  8.82500000E-01
      1.00000000E+00  7.50000000E+00  8.72500000E-01
      1.50000000E+00  7.50000000E+00  8.62500000E-01
      2.00000000E+00  7.50000000E+00  8.52500000E-01
      2.50000000E+00  7.50000000E+00  8.42500000E-01
      3.00000000E+00  7.50000000E+00  8.32500000E-01
      3.50000000E+00  7.50000000E+00  8.22500000E-01
      4.00000000E+00  7.50000000E+00  8.12500000E-01
      4.50000000E+00  7.50000000E+00  8.02500000E-01
      5.00000000E+00  7.50000000E+00  7.92500000E-01
      5.50000000E+00  7.50000000E+00  7.82500000E-01
      6.00000000E+00  7.50000000E+00  7.72500000E-01
      6.50000000E+00  7.50000000E+00  7.62500000E-01
      7.00000000E+00  7.50000000E+00  7.52500000E-01
      7.50000000E+00  7.50000000E+00  7.42500000E-01
      8.00000000E+00  7.50000000E+00  7.32500000E-01
      8.50000000E+00  7.50000000E+00  7.22500000E-01
      9.00000000E+00  7.50000000E+00  7.12500000E-01
      9.50000000E+00  7.50000000E+00  7.02500000E-01
      1.00000000E+01  7.50000000E+00  7.01666667E-01
      0.00000000E+00  7.00000000E+00  8.58333333E-01
      5.00000000E-01  7.00000000E+00  8.57500000E-01
      1.00000000E+00  7.00000000E+00  8.47500000E-01
      1.50000000E+00  7.00000000E+00  8.37500000E-01
      2.00000000E+00  7.00000000E+00  8.27500000E-01
      2.50000000E+00  7.00000000E+00  8.17500000E-01
      3.00000000E+00  7.00000000E+00  8.07500000E-01
      3.50000000E+00  7.00000000E+00  7.97500000E-01
      4.00000000E+00  7.00000000E+00  7.87500000E-01
      4.50000000E+00  7.00000000E+00  7.77500000E-01
      5.00000000E+00  7.00000000E+00  7.67500000E-01
      5.50000000E+00  7.00000000E+00  7.57500000E-01
      6.00000000E+00  7.00000000E+00  7.47500000E-01
      6.50000000E+00  7.00000000E+00  7.37500000E-01
      7.00000000E+00  7.00000000E+00  7.27500000E-01
      7.50000000E+00  7.00000000E+00  7.17500000E-01
      8.00000000E+00  7.00000000E+00  7.07500000E-01
      8.50000000E+00  7.00000000E+00  6.97500000E-01
      9.00000000E+00  7.00000000E+00  6.87500000E-01
      9.50000000E+00  7.00000000E+00  6.77500000E-01
      1.00000000E+01  7.00000000E+00  6.76666667E-01
      0.00000000E+00  6.50000000E+00  8.33333333E-01
      5.00000000E-01  6.50000000E+00  8.32500000E-01
      1.00000000E+00  6.50000000E+00  8.22500000E-01
      1.50000000E+00  6.50000000E+00  8.12500000E-01
      2.00000000E+00  6.50000000E+00  8.02500000E-01
      2.50000000E+00  6.50000000E+00  7.92500000E-01
      3.00000000E+00  6.50000000E+00  7.82500000E-01
      3.50000000E+00  6.50000000E+00  7.72500000E-01
      4.00000000E+00  6.50000000E+00  7.62500000E-01
      4.50000000E+00  6.50000000E+00  7.52500000E-01
      5.00000000E+00  6.50000000E+00  7.42500000E-01
      5.50000000E+00  6.50000000E+00  7.32500000E-01
      6.00000000E+00  6.50000000E+00  7.22500000E-01
      6.50000000E+00  6.50000000E+00  7.12500000E-01
      7.00000000E+00  6.50000000E+00  7.02500000E-01
      7.50000000E+00  6.50000000E+00  6.92500000E-01
      8.00000000E+00  6.50000000E+00  6.82500000E-01
      8.50000000E+00  6.50000000E+00  6.72500000E-01
      9.00000000E+00  6.50000000E+00  6.62500000E-01
      9.50000000E+00  6.50000000E+00  6.52500000E-01
      1.00000000E+01  6.50000000E+00  6.51666667E-01
      0.00000000E+00  6.00000000E+00  8.08333333E-01
      5.00000000E-01  6.00000000E+00  8.07500000E-01
      1.00000000E+00  6.00000000E+00  7.97500000E-01
      1.50000000E+00  6.00000000E+00  7.87500000E-01
      2.00000000E+00  6.00000000E+00  7.77500000E-01
      2.50000000E+00  6.00000000E+00  7.67500000E-01
      3.00000000E+00  6.00000000E+00  7.57500000E-01
      3.50000000E+00  6.00000000E+00  7.47500000E-01
      4.00000000E+00  6.00000000E+00  7.37500000E-01
      4.50000000E+00  6.00000000E+00  7.27500000E-01
      5.00000000E+00  6.00000000E+00  7.17500000E-01
      5.50000000E+00  6.00000000E+00  7.07500000E-01
      6.00000000E+00  6.00000000E+00  6.97500000E-01
      6.50000000E+00  6.00000000E+00  6.87500000E-01
      7.00000000E+00  6.00000000E+00  6.77500000E-01
      7.50000000E+00  6.00000000E+00  6.67500000E-01
      8.00000000E+00  6.00000000E+00  6.57500000E-01
[...]
POINT_DATA     7056
SCALARS pressure float
LOOKUP_TABLE default
 -0.18731193298147975     
 -0.18618958936155891     
 -0.18599628316962633     
 -0.18585453105901437     
 -0.18572282792187597     
 -0.18558878706934065     
 -0.18546911410473316     
 -0.18535396494199260     
 -0.18523036694911035     
 -0.18510524298496295     
 -0.18495518560802177     
 -0.18478943245882262     
 -0.18458627783631129     
 -0.18432934569447082     
 -0.18399360585569907     
 -0.18355813708145965     
 -0.18297598343374807     
 -0.18215919369211989     
 -0.18142372317567435     
 -0.17854624464824673     
 -0.17821135785280331     
 -0.18545334728684321     
 -0.18456354907209269     
 -0.18355059220972786     
 -0.18380358093647065     
 -0.18378132419336249     
 -0.18376849793639646     
 -0.18373780246504226     
 -0.18369206210797234     
 -0.18362364186130567     
 -0.18352858732899713     
 -0.18339872390421266     
 -0.18322527443831121     
 -0.18298599630273163     
 -0.18266947195263300     
 -0.18224408718044161     
 -0.18167197496625620     
 -0.18090643107112445     
 -0.17986598164147541     
 -0.17870124581463734     
 -0.17578312786332009     
 -0.17581079930037399     
 -0.18467778396600468     
 -0.18364215759936584     
 -0.18227496785243044     
 -0.18250091911587502     
 -0.18224773942501457     
 -0.18205048161091858     
 -0.18183356525857194     
 -0.18159816344853888     
 -0.18133410229107849     
 -0.18102972894736682     
 -0.18067289463912897     
 -0.18024195327038045     
 -0.17971368805568977     
 -0.17905754149894040     
 -0.17823318766993909     
 -0.17719342584495576     
 -0.17588317984922658     
 -0.17423585637186978     
 -0.17238405504732657     
 -0.16876855834593552     
 -0.16784421552649012     
 -0.18406308630387491     
 -0.18361243226926477     
 -0.18201973398226320     
 -0.18212596019588972     
 -0.18174518354691613     
 -0.18138691347864117     
 -0.18099885801492469     
 -0.18056835654747960     
 -0.18008719999195141     
 -0.17952690976294378     
 -0.17887568082285163     
 -0.17810469131335338     
 -0.17717852453251973     
 -0.17606161034331905     
 -0.17470739801900056     
 -0.17307287370731103     
 -0.17111269306300214     
 -0.16877127777001605     
 -0.16613832200507722     
 -0.16174217261805054     
 -0.16093781390660614     
 -0.18330769756501206     
 -0.18312126595421485     
 -0.18118417826859357     
 -0.18108769460326898     
 -0.18051001773955205     
 -0.17994285225110482     
 -0.17931637345932308     
 -0.17862114970326717     
 -0.17783717181575784     
 -0.17694235495326613     
 -0.17590782982910072     
 -0.17470298298142817     
 -0.17329120900445596     
 -0.17163604638325927     
 -0.16969824533595138     
 -0.16742898639973430     
 -0.16477756827763138     
 -0.16168544466749094     
 -0.15819338281875442     
 -0.15296716340591315     
 -0.15225014258002201     
 -0.18235353856110328     
 -0.18233304338762335     
 -0.18008596767268328     
 -0.17970605138690607     
 -0.17886559837592353     
 -0.17799838744899188     
 -0.17704563252740796     
 -0.17598687947099195     
 -0.17480173250716277     
 -0.17346175086369886     
 -0.17194238661381764     
 -0.17021059882432493     
 -0.16823263797738505     
 -0.16596424066578855     
 -0.16335855144971184     
 -0.16036217622242194     
 -0.15691635146048383     
 -0.15294821872616518     
 -0.14848459505813802     
 -0.14252413710372541     
 -0.14194112093229447     
 -0.18105623256719874     
 -0.18110328763705894     
 -0.17852399033590546     
 -0.17776600476054405     
 -0.17657286564584460     
 -0.17531044938776183     
 -0.17392575185753986     
 -0.17240253955671844     
 -0.17071834273968936     
 -0.16885043368440134     
 -0.16676697378587141     
 -0.16442988503620778     
 -0.16179881742200991     
 -0.15882470146413843     
 -0.15545050606382735     
 -0.15161187941774212     
 -0.14730340042687984     
 -0.14255002621269569     
 -0.13734829067031298     
 -0.13083042803392309     
 -0.13028091272403783     
 -0.17924046459377752     
 -0.17926430991033079     
 -0.17630489580661318     
 -0.17505285096104289     
 -0.17339298410545714     
 -0.17162687649056466     
 -0.16971670819090107     
 -0.16764233548804752     
 -0.16537786325382972     
 -0.16289310524754924     
 -0.16015343752840086     
 -0.15711604534930851     
 -0.15372760502755353     
 -0.14994420293510372     
 -0.14579243987165899     
 -0.14126270526962212     
 -0.13631325489557483     
 -0.13090370282959624     
 -0.12500526299512046     
 -0.11797990981756379     
 -0.11742269794448368     
 -0.17664172265443639     
 -0.17656525333790005     
 -0.17314693728469127     
 -0.17128300145302988     
 -0.16905692803112590     
 -0.16669624715937978     
 -0.16416575377773260     
 -0.16144217479726361     
 -0.15849768270512124     
 -0.15529486219533070     
 -0.15178977814545702     
 -0.14798259521837409     
 -0.14389987492304224     
 -0.13950864896893445     
 -0.13477256155950135     
 -0.12964967258083601     
 -0.12409523701468630     
 -0.11808494089499960     
 -0.11137979206098160     
 -0.10348974425456052     
 -0.10285602572986663     
 -0.17292854978782674     
 -0.17268859534392175     
 -0.16875491734398257     
 -0.16617330903020375     
 -0.16326875969110627     
 -0.16020120221744166     
 -0.15693923213755012     
 -0.15345101045355378     
 -0.14972045885381691     
 -0.14579354419597024     
 -0.14166444400641554     
 -0.13730156343081545     
 -0.13267506246025090     
 -0.12774232996633963     
 -0.12247338080143279     
 -0.11682662406451839     
 -0.11052479940068514     
 -0.10363215153329637     
  -9.6231318588417672E-002
  -8.8112091514035623E-002
  -8.7508652490163027E-002
 -0.16774802313616222     
 -0.16732417928688198     
 -0.16278187146948703     
 -0.15935352847547776     
 -0.15563745907731816     
 -0.15172823832541366     
 -0.14766226004200025     
 -0.14348256434048837     
 -0.13916855343222340     
 -0.13469998913573455     
 -0.13004757498360803     
 -0.12517893025411320     
 -0.12008314918608630     
 -0.11465797259592683     
 -0.10865737977080223     
 -0.10225783514518155     
  -9.5474236265264509E-002
  -8.8354943530160976E-002
  -8.0386098551592955E-002
  -7.1651605804197840E-002
  -7.1017674339902248E-002
 -0.16063257233799352     
 -0.16007694854110235     
 -0.15477214460841801     
 -0.15035845601833339     
 -0.14580990907890223     
 -0.14121294369387100     
 -0.13655251686735437     
 -0.13181476658502359     
 -0.12697529062707572     
 -0.12203112966056996     
 -0.11694178076524805     
 -0.11148828387212685     
 -0.10571110932032440     
  -9.9682045009967593E-002
  -9.3422893927449249E-002
  -8.6872794972072218E-002
  -7.9687224054363376E-002
  -7.2063862963113998E-002
  -6.3987266463345585E-002
  -5.5313049588955644E-002
  -5.4804218898209980E-002
 -0.15100012309835573     
 -0.15044429058327571     
 -0.14441168489232648     
 -0.13923688930699132     
 -0.13403409656536946     
 -0.12883064886414947     
 -0.12362910544654097     
 -0.11842510624389646     
 -0.11305816546189826     
 -0.10744186608728085     
 -0.10173015555423710     
  -9.5933582375400492E-002
  -9.0071133203166134E-002
  -8.3841237275398578E-002
  -7.7297973524156835E-002
  -7.0455345045927265E-002
  -6.3350098650577141E-002
  -5.5911231988649966E-002
  -4.7802823250912473E-002
  -3.9064249237368356E-002
  -3.8619784823375566E-002
 -0.13907964463458200     
 -0.13853934288028225     
 -0.13193737841925771     
 -0.12605837305161097     
 -0.12027876422465986     
 -0.11452592567389099     
 -0.10859155236831738     
 -0.10270234880022099     
  -9.6894206082785220E-002
  -9.1169079813157972E-002
  -8.5335774359234701E-002
  -7.9315587761907128E-002
  -7.3200304234243799E-002
  -6.6985848038015355E-002
  -6.0723449188498035E-002
  -5.4105627853593206E-002
  -4.7141343086766270E-002
  -3.9828714375838237E-002
  -3.2058214938342613E-002
  -2.3696859280014238E-002
  -2.3449301359243020E-002
 -0.12494128127107558     
 -0.12439453115329335     
 -0.11732387599238871     
 -0.11062841285449131     
 -0.10401153245587053     
  -9.7618811653459231E-002
  -9.1478904821989906E-002
  -8.5434806190311213E-002
  -7.9394239136278244E-002
  -7.3452466154482282E-002
  -6.7604898784668993E-002
  -6.1847044823349871E-002
  -5.6047128995822995E-002
  -5.0073544307657224E-002
  -4.3967819848717352E-002
  -3.7706404938566716E-002
  -3.1268917221817537E-002
  -2.4436614362234078E-002
  -1.6887730894452242E-002
  -9.7532949863921078E-003
  -9.8969526279590932E-003
 -0.10833634057364008     
 -0.10775437083158688     
  -9.9903276462397536E-002
  -9.2733436852591264E-002
  -8.5844744019587249E-002
  -7.9049124528847409E-002
  -7.2547745138056105E-002
  -6.6456122168621748E-002
  -6.0773505390003604E-002
  -5.5172564472609001E-002
  -4.9592154629179548E-002
  -4.4057729731507719E-002
  -3.8538211285850894E-002
  -3.3163434329489511E-002
  -2.7613992608174456E-002
  -2.1608840143218174E-002
  -1.5879751266634431E-002
  -9.9298697249414758E-003
   7.3346714171593393E-004
   5.1057231605897504E-004
   8.7694800865001843E-005
  -8.9451983291771522E-002
  -8.8906075117974923E-002
  -8.0528068657698459E-002
  -7.2798018381986240E-002
  -6.5685373796372487E-002
  -5.9110887681140215E-002
  -5.2604872255807192E-002
  -4.6664988983406999E-002
  -4.1349203507576857E-002
  -3.6389176088219857E-002
  -3.1448958787230724E-002
  -2.6413652346765862E-002
  -2.0975452814030199E-002
  -1.6527478080728325E-002
  -1.1803787673886412E-002
  -2.7979275142566507E-003
   6.7694878213783402E-004
   1.5581374096499444E-003
   3.2302941734564865E-003
   2.9555286912586491E-003
   1.1719662587303305E-003
  -6.8208978944102341E-002
  -6.7733442304573635E-002
  -5.9439220732572275E-002
  -5.1528677101523160E-002
  -4.4480334065154011E-002
  -3.8014814214161773E-002
  -3.1340601246676821E-002
  -2.5753373101764985E-002
  -2.1427665108904342E-002
  -1.7588971214376584E-002
  -1.3759684072389597E-002
  -9.3846889489973447E-003
   1.3209463011823474E-004
   7.7400646184930125E-004
   1.5090346152427539E-003
   2.2296540694256078E-003
   3.2277667091965274E-003
   4.5984259962609988E-003
   6.7397999524892510E-003
   5.8977931648468464E-003
   3.4681387102681056E-003
  -4.5957045810144530E-002
  -4.5447688051466817E-002
  -3.6857846120824461E-002
  -2.8588821653972463E-002
  -2.2367144304385040E-002
  -1.6412110067589570E-002
  -3.5116966708001016E-003
   5.8685121744563354E-004
   1.3402758974985643E-003
   2.0095584468972924E-003
   2.6549974931839534E-003
   3.2942115051552145E-003
   3.9810095824820242E-003
   4.9076997102387226E-003
   6.0553641722268297E-003
   7.1817689262764148E-003
   8.3099290002630506E-003
   9.3451974142939320E-003
   1.1075621793595567E-002
   8.7606852607082820E-003
   5.2931632535615225E-003
  -2.2701175243548914E-002
  -2.2178361308419794E-002
  -1.3112975146995659E-002
   3.3528362609724894E-004
   1.1734263299429399E-003
   2.0195722456642128E-003
   2.7565662447111370E-003
   3.4894424196671306E-003
   4.3872656342012232E-003
   5.1292105342167884E-003
   5.8019706107987163E-003
   6.4636605584011070E-003
   7.0899993749550345E-003
   7.6304384072120104E-003
   8.1314252900914971E-003
   8.6685399139359992E-003
   9.2798376604277776E-003
   9.9656283218946019E-003
   1.0941777323430588E-002
   1.0482062983873519E-002
   7.2516588308062305E-003
  -1.5064986407964043E-002
  -1.2180369622518211E-002
  -3.9029952611557063E-003
   4.9221627412846490E-004
   1.9534787522587360E-003
   3.5968257696383740E-003
   5.0325762595357475E-003
   5.9212240926396148E-003
   6.2916527911355035E-003
   6.4679794049805929E-003
   6.5755774316529911E-003
   6.6607796041473965E-003
   6.7502844955322121E-003
   6.8575589057147304E-003
   6.9946985036136175E-003
   7.1719328215951441E-003
   7.3987860576196557E-003
   7.6927887847038183E-003
   8.1221109331823457E-003
   8.5940861334784496E-003
   8.7585464310008417E-003
 -0.18146596495870498     
 -0.18038631807407854     
 -0.18019304485542240     
 -0.18005051829020027     
 -0.17991802901139434     
 -0.17978327285375165     
 -0.17966295420171238     
 -0.17954723615553819     
 -0.17942314282987698     
 -0.17929756573807884     
 -0.17914709642119178     
 -0.17898091092047275     
 -0.17877728554131750     
 -0.17851980596629874     
 -0.17818341462519577     
 -0.17774714928240185     
 -0.17716404388661275     
 -0.17634634217369016     
 -0.17560875390209901     
 -0.17272917674590202     
 -0.17248531542264292     
 -0.17965701407932266     
 -0.17884513795588089     
 -0.17783413586615263     
 -0.17808716942778929     
 -0.17806532276973522     
 -0.17805289033331401     
 -0.17802259997687933     
 -0.17797721147975171     
 -0.17790905576334892     
 -0.17781413352738959     
 -0.17768423438879019     
 -0.17751053941223005     
 -0.17727080227414349     
 -0.17695356476718224     
 -0.17652722407182897     
 -0.17595392400971763     
 -0.17518696965368305     
 -0.17414504594983701     
 -0.17297768784295942     
 -0.17005790830124121     
 -0.17017377475846487     
 -0.17888254427214106     
 -0.17793095182362353     
 -0.17656607181071221     
 -0.17679193478975694     
 -0.17653897316811754     
 -0.17634166845537891     
 -0.17612465880490541     
 -0.17588904065530894     
 -0.17562461753777944     
 -0.17531971596830428     
 -0.17496216417752586     
 -0.17453031684140680     
 -0.17400095222775888     
 -0.17334351217045105     
 -0.17251766480969416     
 -0.17147617015992625     
 -0.17016385297166683     
 -0.16851401555563708     
 -0.16665800032863917     
 -0.16304006565636300     
 -0.16220240141434225     
 -0.17826628330733071     
 -0.17790258319413588     
 -0.17631122964498697     
 -0.17641761735600850     
 -0.17603698471333157     
 -0.17567854441378650     
 -0.17529016292129551     
 -0.17485913545866122     
 -0.17437723194118154     
 -0.17381601061736704     
 -0.17316363945523836     
 -0.17239130203724465     
 -0.17146355476536035     
 -0.17034473139644876     
 -0.16898813296826812     
 -0.16735049396294457     
 -0.16538644927100549     
 -0.16304082011383314     
 -0.16040230580186485     
 -0.15600293052385455     
 -0.15527935324851666     
 -0.17750992726935064     
 -0.17741260246070634     
 -0.17547575419779451     
 -0.17537931100711288     
 -0.17480145783875561     
 -0.17423375054320220     
 -0.17360656074603042     
 -0.17291041818564021     
 -0.17212532048278550     
 -0.17122915906586370     
 -0.17019300307098961     
 -0.16898609900948186     
 -0.16757163204448236     
 -0.16591295939341844     
 -0.16397102924703214     
 -0.16169715871379492     
 -0.15904056035617301     
 -0.15594277771043322     
 -0.15244391240375499     
 -0.14721367263414845     
 -0.14657095758244451     
 -0.17655493601477415     
 -0.17662454895637297     
 -0.17437678718480978     
 -0.17399657567408533     
 -0.17315555395551560     
 -0.17228745210260038     
 -0.17133361949678177     
 -0.17027353720025945     
 -0.16908669528251069     
 -0.16774447846813931     
 -0.16622210084857481     
 -0.16448654595970991     
 -0.16250429333722749     
 -0.16023101231939693     
 -0.15761983176864086     
 -0.15461742503401282     
 -0.15116520994322619     
 -0.14719029280713136     
 -0.14271530458526860     
 -0.13674404967833539     
 -0.13622832838828855     
 -0.17525636335076197     
 -0.17539353535849639     
 -0.17281305866895572     
 -0.17205432195818396     
 -0.17086023084763943     
 -0.16959646543613588     
 -0.16820998829370284     
 -0.16668430349066116     
 -0.16499681367231109     
 -0.16312500632932142     
 -0.16103708108646891     
 -0.15869488400616097     
 -0.15605809827257044     
 -0.15307773412351602     
 -0.14969702298679849     
 -0.14585078140515231     
 -0.14153015335628041     
 -0.13676328501168028     
 -0.13154702654546346     
 -0.12501811049210979     
 -0.12452815187409573     
 -0.17343842271961937     
 -0.17355186780675289     
 -0.17059100006432107     
 -0.16933749422664923     
 -0.16767577874246484     
 -0.16590691404127686     
 -0.16399324955512784     
 -0.16191485124317223     
 -0.15964571783454390     
 -0.15715565114696267     
 -0.15441008331693754     
 -0.15136636316868335     
 -0.14797124503122550     
 -0.14417862813641749     
 -0.14001405553324539     
 -0.13547098892191006     
 -0.13050761331341840     
 -0.12508365514029704     
 -0.11916974388274101     
 -0.11213352594822089     
 -0.11162632210690891     
 -0.17083623752617202     
 -0.17084837974079792     
 -0.16742757271591344     
 -0.16556038624682495     
 -0.16333072217415368     
 -0.16096580677032615     
 -0.15843042465194207     
 -0.15570133677076778     
 -0.15275079516594511     
 -0.14954165067329234     
 -0.14602920433388733     
 -0.14221067421764433     
 -0.13811521526076934     
 -0.13371086210860866     
 -0.12896110353120113     
 -0.12382425175203612     
 -0.11825508659787518     
 -0.11223044195796264     
 -0.10551700185468378     
  -9.7616973379070646E-002
  -9.7025697882732562E-002
 -0.16711688397165242     
 -0.16696300429948946     
 -0.16302517712609671     
 -0.16043884582241699     
 -0.15752919920245897     
 -0.15445588324377169     
 -0.15118778324889481     
 -0.14769305274321332     
 -0.14395311657036255     
 -0.14001388054229613     
 -0.13587216725300796     
 -0.13149621986919982     
 -0.12685642711373094     
 -0.12191017926998503     
 -0.11662679893143459     
 -0.11096735815203605     
 -0.10465718119564435     
  -9.7750056749949729E-002
  -9.0332921606842947E-002
  -8.2205319339143629E-002
  -8.1635316604789301E-002
 -0.16192701067704895     
 -0.16158442508972556     
 -0.15703716274697530     
 -0.15360258117272593     
 -0.14988034051667559     
 -0.14596363700726067     
 -0.14188598005440783     
 -0.13769382903425370     
 -0.13336715631412779     
 -0.12888560540132865     
 -0.12422016351616100     
 -0.11933794510032519     
 -0.11422864140443265     
 -0.10879429587910014     
 -0.10278298715501175     
  -9.6369930456917219E-002
  -8.9571442090674622E-002
  -8.2439149385610297E-002
  -7.4458171044988836E-002
  -6.5715831022750734E-002
  -6.5103829582321845E-002
 -0.15479893060339689     
 -0.15431788836132712     
 -0.14900835510185578     
 -0.14458493372136799     
 -0.14002378460260487     
 -0.13541410774991355     
 -0.13074072757664204     
 -0.12599002934222564     
 -0.12113740497947963     
 -0.11617956111986388     
 -0.11107872851319396     
 -0.10561804784499225     
  -9.9828089943520285E-002
  -9.3785975700316423E-002
  -8.7513017104024968E-002
  -8.0954087303394456E-002
  -7.3756104955638502E-002
  -6.6120788536636624E-002
  -5.8031568402449836E-002
  -4.9351699696334163E-002
  -4.8855829173626235E-002
 -0.14514880300465824     
 -0.14465907414194942     
 -0.13861549673517923     
 -0.13342731601556410     
 -0.12821128914152347     
 -0.12299461206696059     
 -0.11777911070852447     
 -0.11256258620385461     
 -0.10718921099241656     
 -0.10156059769149144     
  -9.5836420189974195E-002
  -9.0027002591112043E-002
  -8.4151725781740877E-002
  -7.7914517152895504E-002
  -7.1360689901744115E-002
  -6.4507901350214114E-002
  -5.7392005739242920E-002
  -4.9945197263538230E-002
  -4.1828539542618198E-002
  -3.3085283163207302E-002
  -3.2646472755185320E-002
 -0.13320134828925495     
 -0.13271685382422296     
 -0.12610357444708256     
 -0.12021039395609087     
 -0.11441700801838764     
 -0.10865573282444367     
 -0.10271040132461172     
  -9.6808574068128400E-002
  -9.0987771984027313E-002
  -8.5250117817560533E-002
  -7.9410009931019543E-002
  -7.3379854018997062E-002
  -6.7255364330292153E-002
  -6.1031821751370861E-002
  -5.4759769699544950E-002
  -4.8136638871785209E-002
  -4.1165867865366988E-002
  -3.3847061258140590E-002
  -2.6072022834427899E-002
  -1.7708453211204751E-002
  -1.7462783892567581E-002
 -0.11903597851638988     
 -0.11853313939317410     
 -0.11145205971522582     