# vtk DataFile Version 2.0
3D Unstructured Grid of Linear Triangles
ASCII
DATASET UNSTRUCTURED_GRID
FIELD FieldData  1
TIME 1 1 double
        1808.40339
POINTS     7056 float
      0.00000000E+00  1.00000000E+01  1.00000000E+00
      5.00000000E-01  1.00000000E+01  9.93333333E-01
      1.00000000E+00  1.00000000E+01  9.83333333E-01
      1.50000000E+00  1.00000000E+01  9.73333333E-01
      2.00000000E+00  1.00000000E+01  9.63333333E-01
      2.50000000E+00  1.00000000E+01  9.53333333E-01
      3.00000000E+00  1.00000000E+01  9.43333333E-01
      3.50000000E+00  1.00000000E+01  9.33333333E-01
      4.00000000E+00  1.00000000E+01  9.23333333E-01
      4.50000000E+00  1.00000000E+01  9.13333333E-01
      5.00000000E+00  1.00000000E+01  9.03333333E-01
      5.50000000E+00  1.00000000E+01  8.93333333E-01
      6.00000000E+00  1.00000000E+01  8.83333333E-01
      6.50000000E+00  1.00000000E+01  8.73333333E-01
      7.00000000E+00  1.00000000E+01  8.63333333E-01
      7.50000000E+00  1.00000000E+01  8.53333333E-01
      8.00000000E+00  1.00000000E+01  8.43333333E-01
      8.50000000E+00  1.00000000E+01  8.33333333E-01
      9.00000000E+00  1.00000000E+01  8.23333333E-01
      9.50000000E+00  1.00000000E+01  8.13333333E-01
      1.00000000E+01  1.00000000E+01  8.10000000E-01
      0.00000000E+00  9.50000000E+00  9.83333333E-01
      5.00000000E-01  9.50000000E+00  9.82500000E-01
      1.00000000E+00  9.50000000E+00  9.72500000E-01
      1.50000000E+00  9.50000000E+00  9.62500000E-01
      2.00000000E+00  9.50000000E+00  9.52500000E-01
      2.50000000E+00  9.50000000E+00  9.42500000E-01
      3.00000000E+00  9.50000000E+00  9.32500000E-01
      3.50000000E+00  9.50000000E+00  9.22500000E-01
      4.00000000E+00  9.50000000E+00  9.12500000E-01
      4.50000000E+00  9.50000000E+00  9.02500000E-01
      5.00000000E+00  9.50000000E+00  8.92500000E-01
      5.50000000E+00  9.50000000E+00  8.82500000E-01
      6.00000000E+00  9.50000000E+00  8.72500000E-01
      6.50000000E+00  9.50000000E+00  8.62500000E-01
      7.00000000E+00  9.50000000E+00  8.52500000E-01
      7.50000000E+00  9.50000000E+00  8.42500000E-01
      8.00000000E+00  9.50000000E+00  8.32500000E-01
      8.50000000E+00  9.50000000E+00  8.22500000E-01
      9.00000000E+00  9.50000000E+00  8.12500000E-01
      9.50000000E+00  9.50000000E+00  8.02500000E-01
      1.00000000E+01  9.50000000E+00  8.01666667E-01
      0.00000000E+00  9.00000000E+00  9.58333333E-01
      5.00000000E-01  9.00000000E+00  9.57500000E-01
      1.00000000E+00  9.00000000E+00  9.47500000E-01
      1.50000000E+00  9.00000000E+00  9.37500000E-01
      2.00000000E+00  9.00000000E+00  9.27500000E-01
      2.50000000E+00  9.00000000E+00  9.17500000E-01
      3.00000000E+00  9.00000000E+00  9.07500000E-01
      3.50000000E+00  9.00000000E+00  8.97500000E-01
      4.00000000E+00  9.00000000E+00  8.87500000E-01
      4.50000000E+00  9.00000000E+00  8.77500000E-01
      5.00000000E+00  9.00000000E+00  8.67500000E-01
      5.50000000E+00  9.00000000E+00  8.57500000E-01
      6.00000000E+00  9.00000000E+00  8.47500000E-01
      6.50000000E+00  9.00000000E+00  8.37500000E-01
      7.00000000E+00  9.00000000E+00  8.27500000E-01
      7.50000000E+00  9.00000000E+00  8.17500000E-01
      8.00000000E+00  9.00000000E+00  8.07500000E-01
      8.50000000E+00  9.00000000E+00  7.97500000E-01
      9.00000000E+00  9.00000000E+00  7.87500000E-01
      9.50000000E+00  9.00000000E+00  7.77500000E-01
      1.00000000E+01  9.00000000E+00  7.76666667E-01
      0.00000000E+00  8.50000000E+00  9.33333333E-01
      5.00000000E-01  8.50000000E+00  9.32500000E-01
      1.00000000E+00  8.50000000E+00  9.22500000E-01
      1.50000000E+00  8.50000000E+00  9.12500000E-01
      2.00000000E+00  8.50000000E+00  9.02500000E-01
      2.50000000E+00  8.50000000E+00  8.92500000E-01
      3.00000000E+00  8.50000000E+00  8.82500000E-01
      3.50000000E+00  8.50000000E+00  8.72500000E-01
      4.00000000E+00  8.50000000E+00  8.62500000E-01
      4.50000000E+00  8.50000000E+00  8.52500000E-01
      5.00000000E+00  8.50000000E+00  8.42500000E-01
      5.50000000E+00  8.50000000E+00  8.32500000E-01
      6.00000000E+00  8.50000000E+00  8.22500000E-01
      6.50000000E+00  8.50000000E+00  8.12500000E-01
      7.00000000E+00  8.50000000E+00  8.02500000E-01
      7.50000000E+00  8.50000000E+00  7.92500000E-01
      8.00000000E+00  8.50000000E+00  7.82500000E-01
      8.50000000E+00  8.50000000E+00  7.72500000E-01
      9.00000000E+00  8.50000000E+00  7.62500000E-01
      9.50000000E+00  8.50000000E+00  7.52500000E-01
      1.00000000E+01  8.50000000E+00  7.51666667E-01
      0.00000000E+00  8.00000000E+00  9.08333333E-01
      5.00000000E-01  8.00000000E+00  9.07500000E-01
      1.00000000E+00  8.00000000E+00  8.97500000E-01
      1.50000000E+00  8.00000000E+00  8.87500000E-01
      2.00000000E+00  8.00000000E+00  8.77500000E-01
      2.50000000E+00  8.00000000E+00  8.67500000E-01
      3.00000000E+00  8.00000000E+00  8.57500000E-01
      3.50000000E+00  8.00000000E+00  8.47500000E-01
      4.00000000E+00  8.00000000E+00  8.37500000E-01
      4.50000000E+00  8.00000000E+00  8.27500000E-01
      5.00000000E+00  8.00000000E+00  8.17500000E-01
      5.50000000E+00  8.00000000E+00  8.07500000E-01
      6.00000000E+00  8.00000000E+00  7.97500000E-01
      6.50000000E+00  8.00000000E+00  7.87500000E-01
      7.00000000E+00  8.00000000E+00  7.77500000E-01
      7.50000000E+00  8.00000000E+00  7.67500000E-01
      8.00000000E+00  8.00000000E+00  7.57500000E-01
      8.50000000E+00  8.00000000E+00  7.47500000E-01
      9.00000000E+00  8.00000000E+00  7.37500000E-01
      9.50000000E+00  8.00000000E+00  7.27500000E-01
      1.00000000E+01  8.00000000E+00  7.26666667E-01
      0.00000000E+00  7.50000000E+00  8.83333333E-01
      5.00000000E-01  7.50000000E+00  8.82500000E-01
      1.00000000E+00  7.50000000E+00  8.72500000E-01
      1.50000000E+00  7.50000000E+00  8.62500000E-01
      2.00000000E+00  7.50000000E+00  8.52500000E-01
      2.50000000E+00  7.50000000E+00  8.42500000E-01
      3.00000000E+00  7.50000000E+00  8.32500000E-01
      3.50000000E+00  7.50000000E+00  8.22500000E-01
      4.00000000E+00  7.50000000E+00  8.12500000E-01
      4.50000000E+00  7.50000000E+00  8.02500000E-01
      5.00000000E+00  7.50000000E+00  7.92500000E-01
      5.50000000E+00  7.50000000E+00  7.82500000E-01
      6.00000000E+00  7.50000000E+00  7.72500000E-01
      6.50000000E+00  7.50000000E+00  7.62500000E-01
      7.00000000E+00  7.50000000E+00  7.52500000E-01
      7.50000000E+00  7.50000000E+00  7.42500000E-01
      8.00000000E+00  7.50000000E+00  7.32500000E-01
      8.50000000E+00  7.50000000E+00  7.22500000E-01
      9.00000000E+00  7.50000000E+00  7.12500000E-01
      9.50000000E+00  7.50000000E+00  7.02500000E-01
      1.00000000E+01  7.50000000E+00  7.01666667E-01
      0.00000000E+00  7.00000000E+00  8.58333333E-01
      5.00000000E-01  7.00000000E+00  8.57500000E-01
      1.00000000E+00  7.00000000E+00  8.47500000E-01
      1.50000000E+00  7.00000000E+00  8.37500000E-01
      2.00000000E+00  7.00000000E+00  8.27500000E-01
      2.50000000E+00  7.00000000E+00  8.17500000E-01
      3.00000000E+00  7.00000000E+00  8.07500000E-01
      3.50000000E+00  7.00000000E+00  7.97500000E-01
      4.00000000E+00  7.00000000E+00  7.87500000E-01
      4.50000000E+00  7.00000000E+00  7.77500000E-01
      5.00000000E+00  7.00000000E+00  7.67500000E-01
      5.50000000E+00  7.00000000E+00  7.57500000E-01
      6.00000000E+00  7.00000000E+00  7.47500000E-01
      6.50000000E+00  7.00000000E+00  7.37500000E-01
      7.00000000E+00  7.00000000E+00  7.27500000E-01
      7.50000000E+00  7.00000000E+00  7.17500000E-01
      8.00000000E+00  7.00000000E+00  7.07500000E-01
      8.50000000E+00  7.00000000E+00  6.97500000E-01
      9.00000000E+00  7.00000000E+00  6.87500000E-01
      9.50000000E+00  7.00000000E+00  6.77500000E-01
      1.00000000E+01  7.00000000E+00  6.76666667E-01
      0.00000000E+00  6.50000000E+00  8.33333333E-01
      5.00000000E-01  6.50000000E+00  8.32500000E-01
      1.00000000E+00  6.50000000E+00  8.22500000E-01
      1.50000000E+00  6.50000000E+00  8.12500000E-01
      2.00000000E+00  6.50000000E+00  8.02500000E-01
      2.50000000E+00  6.50000000E+00  7.92500000E-01
      3.00000000E+00  6.50000000E+00  7.82500000E-01
      3.50000000E+00  6.50000000E+00  7.72500000E-01
      4.00000000E+00  6.50000000E+00  7.62500000E-01
      4.50000000E+00  6.50000000E+00  7.52500000E-01
      5.00000000E+00  6.50000000E+00  7.42500000E-01
      5.50000000E+00  6.50000000E+00  7.32500000E-01
      6.00000000E+00  6.50000000E+00  7.22500000E-01
      6.50000000E+00  6.50000000E+00  7.12500000E-01
      7.00000000E+00  6.50000000E+00  7.02500000E-01
      7.50000000E+00  6.50000000E+00  6.92500000E-01
      8.00000000E+00  6.50000000E+00  6.82500000E-01
      8.50000000E+00  6.50000000E+00  6.72500000E-01
      9.00000000E+00  6.50000000E+00  6.62500000E-01
      9.50000000E+00  6.50000000E+00  6.52500000E-01
      1.00000000E+01  6.50000000E+00  6.51666667E-01
      0.00000000E+00  6.00000000E+00  8.08333333E-01
      5.00000000E-01  6.00000000E+00  8.07500000E-01
      1.00000000E+00  6.00000000E+00  7.97500000E-01
      1.50000000E+00  6.00000000E+00  7.87500000E-01
      2.00000000E+00  6.00000000E+00  7.77500000E-01
      2.50000000E+00  6.00000000E+00  7.67500000E-01
      3.00000000E+00  6.00000000E+00  7.57500000E-01
      3.50000000E+00  6.00000000E+00  7.47500000E-01
      4.00000000E+00  6.00000000E+00  7.37500000E-01
      4.50000000E+00  6.00000000E+00  7.27500000E-01
      5.00000000E+00  6.00000000E+00  7.17500000E-01
      5.50000000E+00  6.00000000E+00  7.07500000E-01
      6.00000000E+00  6.00000000E+00  6.97500000E-01
      6.50000000E+00  6.00000000E+00  6.87500000E-01
      7.00000000E+00  6.00000000E+00  6.77500000E-01
      7.50000000E+00  6.00000000E+00  6.67500000E-01
      8.00000000E+00  6.00000000E+00  6.57500000E-01
[...]
POINT_DATA     7056
SCALARS pressure float
LOOKUP_TABLE default
  -3.3989113893907984E-002
  -3.2689630331096647E-002
  -3.1962372305301780E-002
  -3.1502827782344728E-002
  -3.1150387019162545E-002
  -3.0863856105043948E-002
  -3.0627517085208032E-002
  -3.0422562950651034E-002
  -3.0241022314008929E-002
  -3.0073411780510022E-002
  -2.9904814579852893E-002
  -2.9732675448316745E-002
  -2.9542377026747332E-002
  -2.9322434372081919E-002
  -2.9058401879679771E-002
  -2.8726609301368722E-002
  -2.8290990915932346E-002
  -2.7686389032526938E-002
  -2.6786268525186820E-002
  -2.4895730467818230E-002
  -2.3707162527224337E-002
  -3.1233361909368311E-002
  -3.0529665547584402E-002
  -2.9278502855680660E-002
  -2.8596695084859229E-002
  -2.8107155510170234E-002
  -2.7741797083722323E-002
  -2.7453529257808865E-002
  -2.7217151905616830E-002
  -2.7014889824268383E-002
  -2.6833011918915121E-002
  -2.6659407676920006E-002
  -2.6483399309234195E-002
  -2.6293194541315540E-002
  -2.6074812168646752E-002
  -2.5811742354081096E-002
  -2.5479203674157846E-002
  -2.5038913634913115E-002
  -2.4418461157181229E-002
  -2.3451393964241743E-002
  -2.1405329511458099E-002
  -2.1379729139392522E-002
  -2.8162786007511771E-002
  -2.7386372953980907E-002
  -2.5655506734703386E-002
  -2.4811006684566147E-002
  -2.4230276977347014E-002
  -2.3795163583490118E-002
  -2.3450919400594641E-002
  -2.3167169527799764E-002
  -2.2922540786652564E-002
  -2.2701751745264873E-002
  -2.2490172014869962E-002
  -2.2274372783718820E-002
  -2.2040168006423631E-002
  -2.1769576888245379E-002
  -2.1439979374611420E-002
  -2.1016141595662403E-002
  -2.0441277214397160E-002
  -1.9607996446781222E-002
  -1.8242006616753924E-002
  -1.4736053159326173E-002
  -1.4856480588169735E-002
  -2.6012774111750899E-002
  -2.5431963556959956E-002
  -2.3547168654744165E-002
  -2.2591418122414438E-002
  -2.1928046652841201E-002
  -2.1425467666390738E-002
  -2.1024066884588414E-002
  -2.0689507678937180E-002
  -2.0397948213588448E-002
  -2.0131513850855289E-002
  -1.9872588486065206E-002
  -1.9605181103726530E-002
  -1.9310889208257534E-002
  -1.8965311101793347E-002
  -1.8532245315409299E-002
  -1.7943507243759066E-002
  -1.6949377435725256E-002
  -1.5347401754447093E-002
  -1.2895304181248296E-002
  -8.8269404906701158E-003
  -9.1439309110102028E-003
  -2.4441739549625068E-002
  -2.3990208783471779E-002
  -2.1983495353157835E-002
  -2.0923942825136734E-002
  -2.0173193465590940E-002
  -1.9590798781247993E-002
  -1.9113190291518246E-002
  -1.8704846445579730E-002
  -1.8338864206221585E-002
  -1.7989749111133914E-002
  -1.7623350921235161E-002
  -1.7182793808660925E-002
  -1.6651765595485753E-002
  -1.6040247022284536E-002
  -1.5297518960300575E-002
  -1.4345875210166973E-002
  -1.3054672707861158E-002
  -1.1169577653721853E-002
  -8.0946172575207670E-003
  -3.6620900646000820E-003
  -4.0940931338474887E-003
  -2.3209392819787053E-002
  -2.2847347370093352E-002
  -2.0728048447589662E-002
  -1.9553785738060714E-002
  -1.8685069362199280E-002
  -1.7969392448314799E-002
  -1.7288362439727929E-002
  -1.6597410713633059E-002
  -1.5996359574321599E-002
  -1.5451982057235818E-002
  -1.4929736741810170E-002
  -1.4396712609230394E-002
  -1.3817959536169057E-002
  -1.3150135600201654E-002
  -1.2333692011942324E-002
  -1.1277009841347376E-002
  -9.7999259854084069E-003
  -7.4266417042598426E-003
  -8.7504718131670557E-004
   6.5817662223519362E-006
   5.4366814907120578E-006
  -2.2193935335815769E-002
  -2.1895857857966702E-002
  -1.9658718852188718E-002
  -1.8331186101339832E-002
  -1.7177523591736344E-002
  -1.6058756477111646E-002
  -1.5162359499515035E-002
  -1.4421064210412064E-002
  -1.3781680293031935E-002
  -1.3200881407532365E-002
  -1.2641476576333818E-002
  -1.2067491380745947E-002
  -1.1439196741023002E-002
  -1.0707285201303731E-002
  -9.8044728438625856E-003
  -8.6175727180819797E-003
  -6.9941181209559446E-003
  -4.4046283488958565E-003
   7.1015679295087516E-006
   1.7526681685103254E-005
   2.0529312936779638E-005
  -2.1321787235997623E-002
  -2.1069755097774180E-002
  -1.8694127487776907E-002
  -1.7009615395319862E-002
  -1.5462751737129965E-002
  -1.4281596436666417E-002
  -1.3342972735643440E-002
  -1.2561850992163687E-002
  -1.1881221084146834E-002
  -1.1257086288762827E-002
  -1.0650499273768134E-002
  -1.0022436410997967E-002
  -9.3291887208064913E-003
  -8.5079190358110773E-003
  -7.4770702049396171E-003
  -6.2091307626552074E-003
  -3.9614346516263716E-003
   2.0528030171572380E-006
   1.5588768917738380E-005
   2.9179426738952388E-005
   2.9210695295331584E-005
  -2.0538238282860281E-002
  -2.0318010131567942E-002
  -1.7743206772697934E-002
  -1.5559044189758359E-002
  -1.3940906211563823E-002
  -1.2711611913861331E-002
  -1.1723433749605517E-002
  -1.0890924515083082E-002
  -1.0156822363439148E-002
  -9.4762143104070856E-003
  -8.8086998537153238E-003
  -8.1037133515882171E-003
  -7.3069469839925323E-003
  -6.3949892750490662E-003
  -5.1076758889943572E-003
  -3.2469468457441129E-003
   1.3991881638684947E-006
   8.4533953742756438E-006
   2.4686529979843157E-005
   3.7765710705471337E-005
   3.6731864117184889E-005
  -1.9794852723626129E-002
  -1.9598172971822526E-002
  -1.6561500123978098E-002
  -1.4209083588416570E-002
  -1.2531548216983057E-002
  -1.1241530145191638E-002
  -1.0188948082661324E-002
  -9.2896154927705685E-003
  -8.4852948587569952E-003
  -7.7207308734202592E-003
  -6.9580149169014924E-003
  -6.1904503263960188E-003
  -5.1227775695609785E-003
  -3.7444394260331328E-003
  -2.3516278572073401E-003
   1.6969532975451276E-006
   7.0133992219700730E-006
   1.6014635062781818E-005
   3.2715062982316859E-005
   4.5351299317183838E-005
   4.4022998231175284E-005
  -1.9037723422505683E-002
  -1.8861972877957309E-002
  -1.5325511235431265E-002
  -1.2887666720276506E-002
  -1.1136695891032314E-002
  -9.7662186461300749E-003
  -8.6265552680249418E-003
  -7.6253288139487268E-003
  -6.7134517641898794E-003
  -5.8730905747819296E-003
  -4.7737108361961171E-003
  -3.5779582135452544E-003
  -2.4041329168474216E-003
   4.0392606437720056E-007
   3.1497468673308197E-006
   7.3085794492765369E-006
   1.4206370995090279E-005
   2.3234971079401950E-005
   3.9657799204519855E-005
   5.2747039944360985E-005
   5.1538708537158382E-005
  -1.8179546524385158E-002
  -1.8026297084594904E-002
  -1.4037223382485723E-002
  -1.1501944528132427E-002
  -9.6498404029729222E-003
  -8.1607760668633966E-003
  -6.8778479544608848E-003
  -5.7522458051142396E-003
  -4.3965800575892231E-003
  -3.2336240920753929E-003
  -2.1280729273867823E-003
   6.3174268572112739E-007
   2.9233912693982031E-006
   5.6273984250676265E-006
   9.6762305513892931E-006
   1.4882349136447645E-005
   2.1104262878325593E-005
   2.9873242406341033E-005
   4.6453626216456799E-005
   6.0415701619175170E-005
   5.9677960051182539E-005
  -1.6924107161351138E-002
  -1.6796134711816652E-002
  -1.2595761182353792E-002
  -9.9342184054880284E-003
  -7.9112339360519410E-003
  -6.2918217217736690E-003
  -4.4935773408405601E-003
  -3.0134057225829772E-003
  -1.3344139884047584E-003
   1.4987206517523954E-006
   3.8173947431525474E-006
   6.2235720963101559E-006
   9.6929565145769961E-006
   1.3330603500754090E-005
   1.7186439561169938E-005
   2.1831332853141881E-005
   2.7959145663710688E-005
   3.6811174955985846E-005
   5.3613101182114387E-005
   6.8798906165031250E-005
   6.8816049054462518E-005
  -1.5220230726933201E-002
  -1.5196496337205890E-002
  -1.0881587061176137E-002
  -7.9881950939458771E-003
  -5.7336526887463721E-003
  -3.4532505230379950E-003
  -3.9086366208603652E-004
   2.6922339389291984E-006
   5.3034370656019313E-006
   8.0791238235479066E-006
   1.1912532407669411E-005
   1.4935679210270755E-005
   1.7868570053637868E-005
   2.1046233315786966E-005
   2.4772786389942923E-005
   2.9410168355049761E-005
   3.5605416836487075E-005
   4.4611630027240234E-005
   6.1649425150950177E-005
   7.8365938148151448E-005
   7.9379326004665239E-005
  -1.3142233715300820E-002
  -1.3233396428339652E-002
  -8.6876756727465691E-003
  -5.3402223178306485E-003
  -1.9729521541040958E-003
   2.8147142728273547E-006
   6.8751163766977584E-006
   1.0846498199256132E-005
   1.5310359487959529E-005
   1.8490010728032948E-005
   2.1277550448537926E-005
   2.3990409075885229E-005
   2.6801491510681950E-005
   2.9948026054008274E-005
   3.3708641641054670E-005
   3.8426983322687098E-005
   4.4725252506532383E-005
   5.3893714357980688E-005
   7.1175777216209342E-005
   8.9697788270976845E-005
   9.1894609115964114E-005
  -1.0465504252356171E-002
  -1.0639106552240056E-002
  -5.6731498887238677E-003
   1.3441622007134394E-006
   6.7685030620600436E-006
   1.2423827300616848E-005
   1.8882682259500695E-005
   2.3250389625791225E-005
   2.6670493064263067E-005
   2.9644710355139060E-005
   3.2361289408170840E-005
   3.5058871572393503E-005
   3.7911432246294459E-005
   4.1111144982708984E-005
   4.4938036229697230E-005
   4.9757169283141817E-005
   5.6178858538585266E-005
   6.5508576584893597E-005
   8.3034574996714852E-005
   1.0359923860255732E-004
   1.0708458077884343E-004
  -6.6792476906330752E-003
  -6.9065757728462816E-003
   3.2179999677411588E-006
   1.2102025066813046E-005
   2.1095406513893565E-005
   2.8515542583047218E-005
   3.3720406146018092E-005
   3.7799934871737554E-005
   4.1184706967112812E-005
   4.4179568736071718E-005
   4.6963996134591098E-005
   4.9718773058545178E-005
   5.2642556943030135E-005
   5.5929330879993163E-005
   5.9845425835306951E-005
   6.4772092864372505E-005
   7.1325771374898187E-005
   8.0817689352926178E-005
   9.8584429604161114E-005
   1.2134399601339822E-004
   1.2606247691687665E-004
   3.1856280484325189E-006
   5.0731949987944600E-006
   1.8167881113688302E-005
   3.2406145161142575E-005
   4.2438331773335153E-005
   4.9141657191609308E-005
   5.4279619220587119E-005
   5.8412096631435000E-005
   6.1901190734148801E-005
   6.4991408565070070E-005
   6.7882581910539013E-005
   7.0743013673109313E-005
   7.3765446592269888E-005
   7.7160841339367586E-005
   8.1191268685418955E-005
   8.6240929278173510E-005
   9.2936893790296690E-005
   1.0259565039832109E-004
   1.2059786004889744E-004
   1.4543721499967090E-004
   1.5088787574270952E-004
   3.0285604890753906E-005
   3.2530255123148724E-005
   5.1806109287645182E-005
   6.8813310910166881E-005
   7.8279916393583372E-005
   8.5097411460499260E-005
   9.0400926515446574E-005
   9.4722512422474250E-005
   9.8381097240976480E-005
   1.0162557224649425E-004
   1.0465712295938517E-004
   1.0765521356593983E-004
   1.1080774772874772E-004
   1.1433445801757387E-004
   1.1850517898597784E-004
   1.2370462122452235E-004
   1.3056515068725488E-004
   1.4039986776029101E-004
   1.5858303939488629E-004
   1.8397225615446463E-004
   1.8745215497740236E-004
   1.2783198359823779E-004
   1.2014639734304608E-004
   1.5288906653020311E-004
   1.8115550705681086E-004
   2.0171078812780292E-004
   2.1999697471613276E-004
   2.3731938737949179E-004
   2.5424862391638855E-004
   2.7111923779402276E-004
   2.8817198538550148E-004
   3.0561850082377792E-004
   3.2366681220549591E-004
   3.4255265437239512E-004
   3.6257573743792796E-004
   3.8414191000884129E-004
   4.0784529818245051E-004
   4.3466072631257016E-004
   4.6652217735994393E-004
   5.1029908896392995E-004
   5.6433271201596145E-004
   4.6411990685336912E-004
   1.6990457876524639E-004
   1.8037989494735750E-004
   2.1770277412947622E-004
   2.6038930114125622E-004
   2.9228299659067385E-004
   3.2187417303337191E-004
   3.5087811847212691E-004
   3.8001615334310341E-004
   4.0966742326433038E-004
   4.4008134263625551E-004
   4.7146856299597043E-004
   5.0404925866537635E-004
   5.3808600932370306E-004
   5.7392507579235794E-004
   6.1205270778838593E-004
   6.5318837726599402E-004
   6.9848799184184652E-004
   7.5011412967356883E-004
   8.1449961586667666E-004
   8.9517811429801794E-004
   9.5195709479089748E-004
  -2.8418314778760966E-002
  -2.7237908346073373E-002
  -2.6499961873084926E-002
  -2.6038221201489683E-002
  -2.5686137215708654E-002
  -2.5400656126208402E-002
  -2.5165623317251369E-002
  -2.4961627487332480E-002
  -2.4780608314082891E-002
  -2.4612837908716077E-002
  -2.4441639958199042E-002
  -2.4265695561575065E-002
  -2.4067902738261489E-002
  -2.3834533334812589E-002
  -2.3552956909342029E-002
  -2.3199729655637252E-002
  -2.2736856670081226E-002
  -2.2095919913273442E-002
  -2.1142354926703032E-002
  -1.9182805835469979E-002
  -1.8082908943192078E-002
  -2.5778169363990477E-002
  -2.5325851696375395E-002
  -2.4074230619677048E-002
  -2.3366335289144342E-002
  -2.2832257500964154E-002
  -2.2433385940041982E-002
  -2.2119383016365218E-002
  -2.1862155701523153E-002
  -2.1642189675821356E-002
  -2.1444534140892875E-002
  -2.1256036952911690E-002
  -2.1065148132410928E-002
  -2.0859197730203605E-002
  -2.0623230412239704E-002
  -2.0339580422287628E-002
  -1.9981936810963455E-002
  -1.9509770857063104E-002
  -1.8847159427500523E-002
  -1.7815175959579710E-002
  -1.5688814201120799E-002
  -1.5744412574909862E-002
  -2.2665187795134076E-002
  -2.2070777946436894E-002
  -2.0231631600569806E-002
  -1.9324317605251835E-002
  -1.8703946220718175E-002
  -1.8240875721584521E-002
  -1.7875447336233644E-002
  -1.7574698360974680E-002
  -1.7315771543324192E-002
  -1.7082296925058811E-002
  -1.6858848495218823E-002
  -1.6631280376284259E-002
  -1.6384705569316919E-002
  -1.6100463181392174E-002
  -1.5755134406141756E-002
  -1.5311788991303981E-002
  -1.4710837989655558E-002
  -1.3843612202076581E-002
  -1.2439160556373351E-002
  -8.9163691702074388E-003
  -9.0856142527891096E-003
  -2.0401460507250963E-002
  -1.9958852334607861E-002
  -1.7978875917301993E-002
  -1.6967931968589263E-002
  -1.6270954508809599E-002
  -1.5744975753082736E-002
  -1.5326081378253023E-002
  -1.4977768106622363E-002
  -1.4674897108429508E-002
  -1.4398633347524836E-002
  -1.4130443184631060E-002
  -1.3853398999098309E-002
  -1.3548985470653533E-002
  -1.3193062921981686E-002
  -1.2750036918247391E-002
  -1.2156909063654369E-002
  -1.1184133375438042E-002
  -9.5282696480843681E-003
  -7.0128228489011032E-003
  -2.8940557728676535E-003
  -3.2229568313328302E-003
  -1.8758630478518602E-002
  -1.8419787077159418E-002
  -1.6330106250722620E-002
  -1.5222593889692417E-002
  -1.4443768065167397E-002
  -1.3842879366118006E-002
  -1.3351832528836158E-002
  -1.2933507569405622E-002
  -1.2561667827028012E-002
  -1.2211777371183436E-002
  -1.1854682144107410E-002
  -1.1438883703926201E-002
  -1.0888124175165714E-002
  -1.0254122281648802E-002
  -9.4863735207387986E-003
  -8.5058859487431963E-003
  -7.1801414491371590E-003
  -5.2484967628541653E-003
  -2.1391716008548277E-003
   2.2958462683111470E-003
   1.8574848982347476E-003
  -1.7477701937106339E-002
  -1.7211217848572345E-002
  -1.5019150014135431E-002
  -1.3804625526609696E-002
  -1.2915415499976372E-002
  -1.2194656185408274E-002
  -1.1545327132659169E-002
  -1.0838441897061363E-002
  -1.0215555445827189E-002
  -9.6523018626074805E-003
  -9.1128174593714840E-003
  -8.5628225363352344E-003
  -7.9665275134922237E-003
  -7.2805132338633711E-003
  -6.4444478595847982E-003
  -5.3662135050463883E-003
  -3.8654922651188968E-003
  -1.4639199763083277E-003
   4.9868391753527903E-003
   6.0068580401772716E-003
   5.9774901900191985E-003
  -1.6426915263463553E-002
  -1.6211982930990926E-002
  -1.3911840277338812E-002
  -1.2555921147194926E-002
  -1.1439237418883490E-002
  -1.0282862996506180E-002
  -9.3558586274643685E-003
  -8.5902267845799924E-003
  -7.9314743378656270E-003
  -7.3345845034004991E-003
  -6.7609483381359005E-003
  -6.1736042985731446E-003
  -5.5321534627051439E-003
  -4.7868149254151069E-003
  -3.8701349132586513E-003
  -2.6688008563481589E-003
  -1.0272404440115617E-003
   1.5717088022340348E-003
   5.9565447498950768E-003
   6.0813070882478112E-003
   6.0534836321900305E-003
  -1.5527665317610181E-002
  -1.5349505805838989E-002
  -1.2921474271548942E-002
  -1.1263262766674741E-002
  -9.6662976218439365E-003
  -8.4469207682098361E-003
  -7.4813225502155982E-003
  -6.6802834581167637E-003
  -5.9841602843418397E-003
  -5.3472826074256845E-003
  -4.7295997996057038E-003
  -4.0913316157457375E-003
  -3.3882972518295119E-003
  -2.5576164387659892E-003
  -1.5171007314399173E-003
  -2.3609940677974908E-004
   2.0167082918123402E-003
   5.9376220611468446E-003
   6.0211141133959230E-003
   6.1292908793153505E-003
   6.0969434375772744E-003
  -1.4722418109875113E-002
  -1.4567723147537898E-002
  -1.1967658701861384E-002
  -9.7629108972839638E-003
  -8.0955989279198805E-003
  -6.8336663867657353E-003
  -5.8232646296505182E-003
  -4.9746254605504171E-003
  -4.2281500443169242E-003
  -3.5375368804339597E-003
  -2.8615557377229201E-003
  -2.1491965260089065E-003
  -1.3450937512433511E-003
  -4.2519002865818291E-004
   8.6444816091996884E-004
   2.7320631595064296E-003
   5.9440750810279691E-003
   6.0026805962538378E-003
   6.0601073315566046E-003
   6.1647585134681545E-003
   6.1305171748145286E-003
  -1.3961124473430609E-002
  -1.3821682504971820E-002
  -1.0792671024598438E-002
  -8.3702790795727160E-003
  -6.6487845182156922E-003
  -5.3315572836454420E-003
  -4.2607849347302404E-003
  -3.3485364036248792E-003
  -2.5348183606013416E-003
  -1.7629036398259092E-003
  -9.9324158324258656E-004
  -2.1889128558410530E-004
   8.5001801459708528E-004
   2.2326009248617696E-003
   3.6276181773200375E-003
   5.9568324525925333E-003
   6.0005270407147973E-003
   6.0370399083511739E-003
   6.0911248740681493E-003
   6.1941775414979102E-003
   6.1592068782252603E-003
  -1.3189638557904665E-002
  -1.3064214468695724E-002
  -9.5142203824934036E-003
  -7.0121849245134669E-003
  -5.2242486566377727E-003
  -3.8314854004283306E-003
  -2.6775567688166442E-003
  -1.6665492088062410E-003
  -7.4674609736011493E-004
   9.5636843957733333E-005
   1.1995610917376167E-003
   2.3997491719247271E-003
   3.5761265088378145E-003
   5.9476774928070592E-003
   5.9774831221153443E-003
   6.0053822919159793E-003
   6.0320544803717313E-003
   6.0652507808872415E-003
   6.1176227383341391E-003
   6.2207229972610590E-003
   6.1856153683452920E-003
  -1.2323035950248532E-002
  -1.2217837650693866E-002
  -8.1872924440539192E-003
  -5.5953735247497331E-003
  -3.7131313952018389E-003
  -2.2065974530708506E-003
  -9.1215446555863004E-004
   2.1708179070182863E-004
   1.5763241594311992E-003
   2.7440569826392529E-003
   3.8519018700701501E-003
   5.9513131522088338E-003
   5.9762465642687985E-003
   5.9983261730416912E-003
   6.0156385184370461E-003
   6.0354893190413660E-003
   6.0590301992693961E-003
   6.0907092166508948E-003
   6.1426369276204847E-003
   6.2465136110209478E-003
   6.2117001412652743E-003
  -1.1081465538784811E-002
  -1.0996745023199455E-002
  -6.7092301941735289E-003
  -4.0008366697609869E-003
  -1.9549264122225526E-003
  -3.1987081138209111E-004
   1.4809992960831953E-003
   2.9637819574627102E-003
   4.6318537043720295E-003
   5.9605357906661952E-003
   5.9823926589485533E-003
   6.0016665439835493E-003
   6.0156494756356538E-003
   6.0298816123459864E-003
   6.0449218569124412E-003
   6.0626279071247669E-003
   6.0851432714386445E-003
   6.1163633027204742E-003
   6.1682468710671269E-003
   6.2734047599459454E-003
   6.2392055153082148E-003
  -9.3369780045975143E-003
  -9.3440459630288585E-003
  -4.9596387713699962E-003
  -2.0311872077671696E-003
   2.3557294450313131E-004
   2.5242497447716880E-003
   5.5501119758535784E-003
   5.9693578370869976E-003
   5.9923097958928242E-003
   6.0102645035457645E-003
   6.0239902757039891E-003
   6.0361129062771676E-003
   6.0477095775009143E-003
   6.0600196060339988E-003
   6.0740661082373075E-003
   6.0911510764240636E-003
   6.1133134442921001E-003
   6.1444249464518604E-003
   6.1964402436444172E-003
   6.3032856690301651E-003
   6.2699545324644227E-003
  -7.2200032197688559E-003
  -7.3304876261896254E-003
  -2.7307949336697526E-003