# vtk DataFile Version 2.0
3D Unstructured Grid of Linear Triangles
ASCII
DATASET UNSTRUCTURED_GRID
FIELD FieldData  1
TIME 1 1 double
        3608.40339
POINTS     7056 float
      0.00000000E+00  1.00000000E+01  1.00000000E+00
      5.00000000E-01  1.00000000E+01  9.93333333E-01
      1.00000000E+00  1.00000000E+01  9.83333333E-01
      1.50000000E+00  1.00000000E+01  9.73333333E-01
      2.00000000E+00  1.00000000E+01  9.63333333E-01
      2.50000000E+00  1.00000000E+01  9.53333333E-01
      3.00000000E+00  1.00000000E+01  9.43333333E-01
      3.50000000E+00  1.00000000E+01  9.33333333E-01
      4.00000000E+00  1.00000000E+01  9.23333333E-01
      4.50000000E+00  1.00000000E+01  9.13333333E-01
      5.00000000E+00  1.00000000E+01  9.03333333E-01
      5.50000000E+00  1.00000000E+01  8.93333333E-01
      6.00000000E+00  1.00000000E+01  8.83333333E-01
      6.50000000E+00  1.00000000E+01  8.73333333E-01
      7.00000000E+00  1.00000000E+01  8.63333333E-01
      7.50000000E+00  1.00000000E+01  8.53333333E-01
      8.00000000E+00  1.00000000E+01  8.43333333E-01
      8.50000000E+00  1.00000000E+01  8.33333333E-01
      9.00000000E+00  1.00000000E+01  8.23333333E-01
      9.50000000E+00  1.00000000E+01  8.13333333E-01
      1.00000000E+01  1.00000000E+01  8.10000000E-01
      0.00000000E+00  9.50000000E+00  9.83333333E-01
      5.00000000E-01  9.50000000E+00  9.82500000E-01
      1.00000000E+00  9.50000000E+00  9.72500000E-01
      1.50000000E+00  9.50000000E+00  9.62500000E-01
      2.00000000E+00  9.50000000E+00  9.52500000E-01
      2.50000000E+00  9.50000000E+00  9.42500000E-01
      3.00000000E+00  9.50000000E+00  9.32500000E-01
      3.50000000E+00  9.50000000E+00  9.22500000E-01
      4.00000000E+00  9.50000000E+00  9.12500000E-01
      4.50000000E+00  9.50000000E+00  9.02500000E-01
      5.00000000E+00  9.50000000E+00  8.92500000E-01
      5.50000000E+00  9.50000000E+00  8.82500000E-01
      6.00000000E+00  9.50000000E+00  8.72500000E-01
      6.50000000E+00  9.50000000E+00  8.62500000E-01
      7.00000000E+00  9.50000000E+00  8.52500000E-01
      7.50000000E+00  9.50000000E+00  8.42500000E-01
      8.00000000E+00  9.50000000E+00  8.32500000E-01
      8.50000000E+00  9.50000000E+00  8.22500000E-01
      9.00000000E+00  9.50000000E+00  8.12500000E-01
      9.50000000E+00  9.50000000E+00  8.02500000E-01
      1.00000000E+01  9.50000000E+00  8.01666667E-01
      0.00000000E+00  9.00000000E+00  9.58333333E-01
      5.00000000E-01  9.00000000E+00  9.57500000E-01
      1.00000000E+00  9.00000000E+00  9.47500000E-01
      1.50000000E+00  9.00000000E+00  9.37500000E-01
      2.00000000E+00  9.00000000E+00  9.27500000E-01
      2.50000000E+00  9.00000000E+00  9.17500000E-01
      3.00000000E+00  9.00000000E+00  9.07500000E-01
      3.50000000E+00  9.00000000E+00  8.97500000E-01
      4.00000000E+00  9.00000000E+00  8.87500000E-01
      4.50000000E+00  9.00000000E+00  8.77500000E-01
      5.00000000E+00  9.00000000E+00  8.67500000E-01
      5.50000000E+00  9.00000000E+00  8.57500000E-01
      6.00000000E+00  9.00000000E+00  8.47500000E-01
      6.50000000E+00  9.00000000E+00  8.37500000E-01
      7.00000000E+00  9.00000000E+00  8.27500000E-01
      7.50000000E+00  9.00000000E+00  8.17500000E-01
      8.00000000E+00  9.00000000E+00  8.07500000E-01
      8.50000000E+00  9.00000000E+00  7.97500000E-01
      9.00000000E+00  9.00000000E+00  7.87500000E-01
      9.50000000E+00  9.00000000E+00  7.77500000E-01
      1.00000000E+01  9.00000000E+00  7.76666667E-01
      0.00000000E+00  8.50000000E+00  9.33333333E-01
      5.00000000E-01  8.50000000E+00  9.32500000E-01
      1.00000000E+00  8.50000000E+00  9.22500000E-01
      1.50000000E+00  8.50000000E+00  9.12500000E-01
      2.00000000E+00  8.50000000E+00  9.02500000E-01
      2.50000000E+00  8.50000000E+00  8.92500000E-01
      3.00000000E+00  8.50000000E+00  8.82500000E-01
      3.50000000E+00  8.50000000E+00  8.72500000E-01
      4.00000000E+00  8.50000000E+00  8.62500000E-01
      4.50000000E+00  8.50000000E+00  8.52500000E-01
      5.00000000E+00  8.50000000E+00  8.42500000E-01
      5.50000000E+00  8.50000000E+00  8.32500000E-01
      6.00000000E+00  8.50000000E+00  8.22500000E-01
      6.50000000E+00  8.50000000E+00  8.12500000E-01
      7.00000000E+00  8.50000000E+00  8.02500000E-01
      7.50000000E+00  8.50000000E+00  7.92500000E-01
      8.00000000E+00  8.50000000E+00  7.82500000E-01
      8.50000000E+00  8.50000000E+00  7.72500000E-01
      9.00000000E+00  8.50000000E+00  7.62500000E-01
      9.50000000E+00  8.50000000E+00  7.52500000E-01
      1.00000000E+01  8.50000000E+00  7.51666667E-01
      0.00000000E+00  8.00000000E+00  9.08333333E-01
      5.00000000E-01  8.00000000E+00  9.07500000E-01
      1.00000000E+00  8.00000000E+00  8.97500000E-01
      1.50000000E+00  8.00000000E+00  8.87500000E-01
      2.00000000E+00  8.00000000E+00  8.77500000E-01
      2.50000000E+00  8.00000000E+00  8.67500000E-01
      3.00000000E+00  8.00000000E+00  8.57500000E-01
      3.50000000E+00  8.00000000E+00  8.47500000E-01
      4.00000000E+00  8.00000000E+00  8.37500000E-01
      4.50000000E+00  8.00000000E+00  8.27500000E-01
      5.00000000E+00  8.00000000E+00  8.17500000E-01
      5.50000000E+00  8.00000000E+00  8.07500000E-01
      6.00000000E+00  8.00000000E+00  7.97500000E-01
      6.50000000E+00  8.00000000E+00  7.87500000E-01
      7.00000000E+00  8.00000000E+00  7.77500000E-01
      7.50000000E+00  8.00000000E+00  7.67500000E-01
      8.00000000E+00  8.00000000E+00  7.57500000E-01
      8.50000000E+00  8.00000000E+00  7.47500000E-01
      9.00000000E+00  8.00000000E+00  7.37500000E-01
      9.50000000E+00  8.00000000E+00  7.27500000E-01
      1.00000000E+01  8.00000000E+00  7.26666667E-01
      0.00000000E+00  7.50000000E+00  8.83333333E-01
      5.00000000E-01  7.50000000E+00  8.82500000E-01
      1.00000000E+00  7.50000000E+00  8.72500000E-01
      1.50000000E+00  7.50000000E+00  8.62500000E-01
      2.00000000E+00  7.50000000E+00  8.52500000E-01
      2.50000000E+00  7.50000000E+00  8.42500000E-01
      3.00000000E+00  7.50000000E+00  8.32500000E-01
      3.50000000E+00  7.50000000E+00  8.22500000E-01
      4.00000000E+00  7.50000000E+00  8.12500000E-01
      4.50000000E+00  7.50000000E+00  8.02500000E-01
      5.00000000E+00  7.50000000E+00  7.92500000E-01
      5.50000000E+00  7.50000000E+00  7.82500000E-01
      6.00000000E+00  7.50000000E+00  7.72500000E-01
      6.50000000E+00  7.50000000E+00  7.62500000E-01
      7.00000000E+00  7.50000000E+00  7.52500000E-01
      7.50000000E+00  7.50000000E+00  7.42500000E-01
      8.00000000E+00  7.50000000E+00  7.32500000E-01
      8.50000000E+00  7.50000000E+00  7.22500000E-01
      9.00000000E+00  7.50000000E+00  7.12500000E-01
      9.50000000E+00  7.50000000E+00  7.02500000E-01
      1.00000000E+01  7.50000000E+00  7.01666667E-01
      0.00000000E+00  7.00000000E+00  8.58333333E-01
      5.00000000E-01  7.00000000E+00  8.57500000E-01
      1.00000000E+00  7.00000000E+00  8.47500000E-01
      1.50000000E+00  7.00000000E+00  8.37500000E-01
      2.00000000E+00  7.00000000E+00  8.27500000E-01
      2.50000000E+00  7.00000000E+00  8.17500000E-01
      3.00000000E+00  7.00000000E+00  8.07500000E-01
      3.50000000E+00  7.00000000E+00  7.97500000E-01
      4.00000000E+00  7.00000000E+00  7.87500000E-01
      4.50000000E+00  7.00000000E+00  7.77500000E-01
      5.00000000E+00  7.00000000E+00  7.67500000E-01
      5.50000000E+00  7.00000000E+00  7.57500000E-01
      6.00000000E+00  7.00000000E+00  7.47500000E-01
      6.50000000E+00  7.00000000E+00  7.37500000E-01
      7.00000000E+00  7.00000000E+00  7.27500000E-01
      7.50000000E+00  7.00000000E+00  7.17500000E-01
      8.00000000E+00  7.00000000E+00  7.07500000E-01
      8.50000000E+00  7.00000000E+00  6.97500000E-01
      9.00000000E+00  7.00000000E+00  6.87500000E-01
      9.50000000E+00  7.00000000E+00  6.77500000E-01
      1.00000000E+01  7.00000000E+00  6.76666667E-01
      0.00000000E+00  6.50000000E+00  8.33333333E-01
      5.00000000E-01  6.50000000E+00  8.32500000E-01
      1.00000000E+00  6.50000000E+00  8.22500000E-01
      1.50000000E+00  6.50000000E+00  8.12500000E-01
      2.00000000E+00  6.50000000E+00  8.02500000E-01
      2.50000000E+00  6.50000000E+00  7.92500000E-01
      3.00000000E+00  6.50000000E+00  7.82500000E-01
      3.50000000E+00  6.50000000E+00  7.72500000E-01
      4.00000000E+00  6.50000000E+00  7.62500000E-01
      4.50000000E+00  6.50000000E+00  7.52500000E-01
      5.00000000E+00  6.50000000E+00  7.42500000E-01
      5.50000000E+00  6.50000000E+00  7.32500000E-01
      6.00000000E+00  6.50000000E+00  7.22500000E-01
      6.50000000E+00  6.50000000E+00  7.12500000E-01
      7.00000000E+00  6.50000000E+00  7.02500000E-01
      7.50000000E+00  6.50000000E+00  6.92500000E-01
      8.00000000E+00  6.50000000E+00  6.82500000E-01
      8.50000000E+00  6.50000000E+00  6.72500000E-01
      9.00000000E+00  6.50000000E+00  6.62500000E-01
      9.50000000E+00  6.50000000E+00  6.52500000E-01
      1.00000000E+01  6.50000000E+00  6.51666667E-01
      0.00000000E+00  6.00000000E+00  8.08333333E-01
      5.00000000E-01  6.00000000E+00  8.07500000E-01
      1.00000000E+00  6.00000000E+00  7.97500000E-01
      1.50000000E+00  6.00000000E+00  7.87500000E-01
      2.00000000E+00  6.00000000E+00  7.77500000E-01
      2.50000000E+00  6.00000000E+00  7.67500000E-01
      3.00000000E+00  6.00000000E+00  7.57500000E-01
      3.50000000E+00  6.00000000E+00  7.47500000E-01
      4.00000000E+00  6.00000000E+00  7.37500000E-01
      4.50000000E+00  6.00000000E+00  7.27500000E-01
      5.00000000E+00  6.00000000E+00  7.17500000E-01
      5.50000000E+00  6.00000000E+00  7.07500000E-01
      6.00000000E+00  6.00000000E+00  6.97500000E-01
      6.50000000E+00  6.00000000E+00  6.87500000E-01
      7.00000000E+00  6.00000000E+00  6.77500000E-01
      7.50000000E+00  6.00000000E+00  6.67500000E-01
      8.00000000E+00  6.00000000E+00  6.57500000E-01
[...]
POINT_DATA     7056
SCALARS pressure float
LOOKUP_TABLE default
  -4.3562173572997603E-002
  -4.2040234907978716E-002
  -4.1149169727945099E-002
  -4.0619172549379683E-002
  -4.0228875953266859E-002
  -3.9924263392815074E-002
  -3.9679790119484762E-002
  -3.9473884966682256E-002
  -3.9295398947780377E-002
  -3.9133380943866744E-002
  -3.8972396458742738E-002
  -3.8810371174351287E-002
  -3.8633385930819365E-002
  -3.8429082820934872E-002
  -3.8180710468551947E-002
  -3.7864577174379875E-002
  -3.7442295310906253E-002
  -3.6840604740318042E-002
  -3.5907560694221505E-002
  -3.3669074332763844E-002
  -3.2202216149450562E-002
  -4.0380972135628766E-002
  -3.9844808566048696E-002
  -3.8631631909871074E-002
  -3.8073539357975653E-002
  -3.7649881533919051E-002
  -3.7315169032447380E-002
  -3.7041033908971482E-002
  -3.6808524412289857E-002
  -3.6603396118910961E-002
  -3.6415732205069169E-002
  -3.6230053760029711E-002
  -3.6037066302783360E-002
  -3.5825008728074904E-002
  -3.5577019070810872E-002
  -3.5270901896745185E-002
  -3.4870802170099538E-002
  -3.4318113199861069E-002
  -3.3482089988883579E-002
  -3.1998176620274030E-002
  -2.8807121149460768E-002
  -2.8786772744730182E-002
  -3.7586749410253653E-002
  -3.7013609770036232E-002
  -3.5319166890565586E-002
  -3.4436860161421903E-002
  -3.3744059542866349E-002
  -3.3171520485070841E-002
  -3.2676997320224568E-002
  -3.2233667334736940E-002
  -3.1825040016180604E-002
  -3.1432211456983133E-002
  -3.1045109632900410E-002
  -3.0650985618033959E-002
  -3.0226282533642079E-002
  -2.9741984191715656E-002
  -2.9161845449365592E-002
  -2.8434688865584295E-002
  -2.7481330100985135E-002
  -2.6162133778173786E-002
  -2.4172875726111608E-002
  -2.0731760325145537E-002
  -2.0854596328210788E-002
  -3.5542601037954993E-002
  -3.5077781181764633E-002
  -3.2858831449357799E-002
  -3.1416893588358773E-002
  -3.0265466855225246E-002
  -2.9392470730996930E-002
  -2.8698702518112792E-002
  -2.8122902617176572E-002
  -2.7624107031706428E-002
  -2.7171101146911399E-002
  -2.6736186655070854E-002
  -2.6293085735923830E-002
  -2.5813387538865185E-002
  -2.5263881266328728E-002
  -2.4601528188340299E-002
  -2.3763719127665710E-002
  -2.2637846599517310E-002
  -2.1041655687061379E-002
  -1.8684343914303042E-002
  -1.3882086999764965E-002
  -1.4091299203841098E-002
  -3.3692511141161584E-002
  -3.3263013680168249E-002
  -3.0293831540752766E-002
  -2.8538869029389465E-002
  -2.7302051056719172E-002
  -2.6366573998221753E-002
  -2.5619279379027277E-002
  -2.4995589744973054E-002
  -2.4452174807428229E-002
  -2.3955395154882767E-002
  -2.3475041755430866E-002
  -2.2982376295281565E-002
  -2.2444030390901631E-002
  -2.1819028117673330E-002
  -2.1046785072769681E-002
  -2.0047593232204307E-002
  -1.8689347930465731E-002
  -1.6343287068363042E-002
  -1.2670100620196273E-002
  -7.4548814953047660E-003
  -7.7349668051583794E-003
  -3.1775750131216744E-002
  -3.1375588830795220E-002
  -2.8116113201008933E-002
  -2.6274909729092456E-002
  -2.4973973490969872E-002
  -2.3979061101042771E-002
  -2.3175362418441179E-002
  -2.2497234788027530E-002
  -2.1900105238996184E-002
  -2.1347482020114938E-002
  -2.0804322139064461E-002
  -2.0233633174095059E-002
  -1.9601337834298089E-002
  -1.8856956531257386E-002
  -1.7891731429357589E-002
  -1.6290019778779814E-002
  -1.4143455329083713E-002
  -1.1231092129275914E-002
  -7.1837960699079433E-003
   2.8572888378309366E-006
   2.6802147053978176E-006
  -2.9942153021255576E-002
  -2.9655966665361452E-002
  -2.6333492440786494E-002
  -2.4418622938192146E-002
  -2.3048282031163790E-002
  -2.1983553197064843E-002
  -2.1110200481288956E-002
  -2.0355925707332034E-002
  -1.9673707351481384E-002
  -1.9027854889108790E-002
  -1.8377785990206629E-002
  -1.7617705846578676E-002
  -1.6589566105613785E-002
  -1.5406525421198410E-002
  -1.3985389066571867E-002
  -1.2217665391241167E-002
  -9.9242561538221800E-003
  -6.7368470780682478E-003
   3.5450301626101046E-006
   1.3041556618936607E-005
   1.5631513658695131E-005
  -2.8396354167196075E-002
  -2.8197975222336479E-002
  -2.4815452956046459E-002
  -2.2820818180217948E-002
  -2.1367582157225586E-002
  -2.0208742571063920E-002
  -1.9223011253728137E-002
  -1.8340553268188717E-002
  -1.7405645230612211E-002
  -1.6374472492129550E-002
  -1.5369222121834803E-002
  -1.4339646055522128E-002
  -1.3232495719152129E-002
  -1.1982355574680810E-002
  -1.0492633246665668E-002
  -8.6176990711920535E-003
  -6.3012407330342354E-003
  -2.4276794188134859E-003
   1.1684150747078340E-005
   2.5249084665457464E-005
   2.6751534610582923E-005
  -2.7037158112407717E-002
  -2.6905440493225609E-002
  -2.3458848556409513E-002
  -2.1371058919247999E-002
  -1.9800547193015595E-002
  -1.8491184782370201E-002
  -1.7153924220276749E-002
  -1.5798609075864854E-002
  -1.4592259523328401E-002
  -1.3489058761943682E-002
  -1.2432286130225708E-002
  -1.1360694989395596E-002
  -1.0216643993902564E-002
  -8.9120639743339863E-003
  -7.3222441543461299E-003
  -5.4390013629967001E-003
  -2.9588070881826139E-003
   4.4516005205908428E-006
   1.9877542046238670E-005
   3.4720907813643838E-005
   3.4149862033553258E-005
  -2.5778228174808501E-002
  -2.5698524687393205E-002
  -2.2176704841005597E-002
  -1.9961754369117797E-002
  -1.8207327834324265E-002
  -1.6325806776119105E-002
  -1.4633386977168471E-002
  -1.3197357325540058E-002
  -1.1943434504491476E-002
  -1.0799195733008528E-002
  -9.7077109129159161E-003
  -8.5911515815588219E-003
  -7.3776537513538173E-003
  -6.0955947899757274E-003
  -4.1705196145181839E-003
  -1.8558581655028399E-003
   3.4792556116657453E-006
   1.1976112631512393E-005
   2.9972526638527360E-005
   4.2605676321585395E-005
   4.1203623857643901E-005
  -2.4542127124792232E-002
  -2.4503794129335826E-002
  -2.0877948120943745E-002
  -1.8480209064912944E-002
  -1.6062733357590987E-002
  -1.3914159848278457E-002
  -1.2152471855329729E-002
  -1.0669070140674888E-002
  -9.3745756863947340E-003
  -8.1759396332189548E-003
  -7.0341205179384964E-003
  -5.9393622556547249E-003
  -4.3982575315095812E-003
  -2.8941167467767290E-003
   1.0462172617576156E-006
   4.6918548112804920E-006
   1.0507767701477638E-005
   2.0921399713162266E-005
   3.7587741846469702E-005
   5.0071950911518095E-005
   4.8431535533796092E-005
  -2.3248597887902261E-002
  -2.3238191240975387E-002
  -1.9466585758641110E-002
  -1.6461599985739858E-002
  -1.3665083449841532E-002
  -1.1437011751199728E-002
  -9.6225978015836867E-003
  -8.0655963531400861E-003
  -6.7433187074198491E-003
  -5.5246508704864796E-003
  -4.0830538895342385E-003
  -2.7318568662580219E-003
   1.8327520470658827E-007
   3.1474116431483435E-006
   6.9494011964714471E-006
   1.2476755088955655E-005
   1.9194654540294502E-005
   2.8123387067357544E-005
   4.4697253217322079E-005
   5.7727453218286378E-005
   5.6252375562368601E-005
  -2.1802258076780275E-002
  -2.1790347563213960E-002
  -1.7763637458403092E-002
  -1.3982203015383943E-002
  -1.1070460475205639E-002
  -8.7630200694560016E-003
  -6.8847564930476744E-003
  -5.1445469994253817E-003
  -3.7106289590623561E-003
  -2.3724849327819218E-003
   1.2778083575361731E-006
   3.9441818472753393E-006
   6.5345940230296446E-006
   1.0358960441788085E-005
   1.5275938948453231E-005
   2.0197079683967808E-005
   2.6414131736210809E-005
   3.5308390761811114E-005
   5.2057783789260796E-005
   6.6047993565382962E-005
   6.5058646143887242E-005
  -2.0058503416045505E-002
  -2.0034651310274251E-002
  -1.5086316420968911E-002
  -1.1108763820483970E-002
  -8.1190250889108893E-003
  -5.6634366786279351E-003
  -3.5468308842676131E-003
  -6.0040146774138076E-004
   2.7638518601668720E-006
   5.4717045479710285E-006
   8.3311856281762285E-006
   1.2481021959577468E-005
   1.5985785227305849E-005
   1.9438685642047840E-005
   2.3297700249059466E-005
   2.8037156676029094E-005
   3.4250887517535849E-005
   4.3252559178978781E-005
   6.0240286072454394E-005
   7.5520086071781655E-005
   7.5280802141566708E-005
  -1.7635115792746379E-002
  -1.7655028777845718E-002
  -1.1797157869302508E-002
  -7.6313536681816493E-003
  -4.5071694325007463E-003
   5.5008264674261303E-007
   4.4796822509286516E-006
   7.8226493564030608E-006
   1.1558146434257639E-005
   1.6183262751267705E-005
   1.9393271671741136E-005
   2.2344903911300195E-005
   2.5333070771101029E-005
   2.8603580788991543E-005
   3.2415554169991350E-005
   3.7182086643841947E-005
   4.3494320038973818E-005
   5.2638824350580900E-005
   6.9870813808307940E-005
   8.6736256352728410E-005
   8.7448094802703048E-005
  -1.3489305802554490E-002
  -1.3586891280772230E-002
  -7.4832105012745407E-003
  -2.7960130542799022E-003
   4.0972743989078789E-006
   1.0027831098709666E-005
   1.5766159226938147E-005
   2.1117271330819169E-005
   2.4879595552653312E-005
   2.7999809116032425E-005
   3.0879636146406270E-005
   3.3666485123727688E-005
   3.6594672148240260E-005
   3.9881324552094550E-005
   4.3752877184194568E-005
   4.8593228497738946E-005
   5.5024282682766186E-005
   6.4331830261163753E-005
   8.1807608218282052E-005
   1.0050399711202368E-004
   1.0228526535012787E-004
  -8.2104654426266195E-003
  -8.2531504711024824E-003
   1.7618307393538987E-006
   9.4462656035700222E-006
   1.7411713971306010E-005
   2.6237010721198431E-005
   3.1906445815388399E-005
   3.6159389232891487E-005
   3.9695522425749286E-005
   4.2752697311932683E-005
   4.5615280597384544E-005
   4.8444023545260785E-005
   5.1413830502511763E-005
   5.4756402925361311E-005
   5.8717914689795423E-005
   6.3662086503594165E-005
   7.0219153408938588E-005
   7.9694280389996282E-005
   9.7416458554886517E-005
   1.1810117955057918E-004
   1.2090479854654908E-004
  -1.4229102086373141E-003
   3.2060703765192695E-006
   1.6618395213347616E-005
   3.0078909002417438E-005
   4.0544093720313997E-005
   4.7505616631160087E-005
   5.2746988156327224E-005
   5.6952040288281154E-005
   6.0522308494176548E-005
   6.3671070625913681E-005
   6.6603211205123160E-005
   6.9518251204121219E-005
   7.2583713571551869E-005
   7.6017301932658401E-005
   8.0087648426977850E-005
   8.5159663845008927E-005
   9.1858895411517624E-005
   1.0150451128274678E-004
   1.1947053102415554E-004
   1.4203521426427195E-004
   1.4536602982326879E-004
   2.7883203631068608E-005
   2.9783045595590769E-005
   5.0130774077067564E-005
   6.7255860480058916E-005
   7.6771161183901378E-005
   8.3656345917221896E-005
   8.8989999680836170E-005
   9.3341903005408187E-005
   9.7046493909731167E-005
   1.0034078667688250E-004
   1.0340834989819070E-004
   1.0644456365928365E-004
   1.0963786384481433E-004
   1.1319861053092018E-004
   1.1740288132775998E-004
   1.2262831991942201E-004
   1.2949717739344277E-004
   1.3932260993265491E-004
   1.5747822134955954E-004
   1.8039989322195466E-004
   1.8156044585239048E-004
   1.2587990446904219E-004
   1.1836888705607737E-004
   1.5081393225104372E-004
   1.7890001283698770E-004
   1.9925079872292641E-004
   2.1732703672184899E-004
   2.3442726396890923E-004
   2.5111904502204345E-004
   2.6776128591252330E-004
   2.8460403511736273E-004
   3.0185455077161825E-004
   3.1972457775441995E-004
   3.3846036037856245E-004
   3.5836177801598087E-004
   3.7983722360025805E-004
   4.0348369987110015E-004
   4.3027099342368756E-004
   4.6212823234042540E-004
   5.0586093169588983E-004
   5.5567246321607422E-004
   4.5406410711960492E-004
   1.6736517679019392E-004
   1.7781024272009587E-004
   2.1498899365205145E-004
   2.5739927431218067E-004
   2.8892292077313363E-004
   3.1808543879528587E-004
   3.4662890228982210E-004
   3.7528419471540383E-004
   4.0444476718574192E-004
   4.3438488515945637E-004
   4.6532999338862397E-004
   4.9750635675686059E-004
   5.3118659825047618E-004
   5.6672672569717936E-004
   6.0461869744035147E-004
   6.4558818322541281E-004
   6.9079349172840646E-004
   7.4239354396875919E-004
   8.0675367011071128E-004
   8.8400351104647344E-004
   9.3407127489991920E-004
  -3.8006695372827699E-002
  -3.6599072775023611E-002
  -3.5669795206143870E-002
  -3.5115781318854046E-002
  -3.4708703362241890E-002
  -3.4391344288011924E-002
  -3.4136664149755712E-002
  -3.3922314192536079E-002
  -3.3736508249082454E-002
  -3.3567818909174374E-002
  -3.3400515490224832E-002
  -3.3231991212071738E-002
  -3.3048040174868135E-002
  -3.2835846065383464E-002
  -3.2578112408895785E-002
  -3.2250393251647663E-002
  -3.1813170912938712E-002
  -3.1191055861467271E-002
  -3.0227265550647989E-002
  -2.7985353416698337E-002
  -2.6699004707535647E-002
  -3.4891937447917777E-002
  -3.4565287220784523E-002
  -3.3295039320604590E-002
  -3.2706836824012021E-002
  -3.2262431255885675E-002
  -3.1911659892216789E-002
  -3.1624602601299845E-002
  -3.1381347045762405E-002
  -3.1166977563941024E-002
  -3.0970979180996634E-002
  -3.0777477086210526E-002
  -3.0576689815525335E-002
  -3.0356455596371099E-002
  -3.0099561944295358E-002
  -2.9783504370620689E-002
  -2.9372348701544853E-002
  -2.8808177078381500E-002
  -2.7963980381114806E-002
  -2.6476960878229337E-002
  -2.3185422435474116E-002
  -2.3274844974207374E-002
  -3.2010825920057516E-002
  -3.1616737561080709E-002
  -2.9882159641809028E-002
  -2.8980693470073770E-002
  -2.8280660261243620E-002
  -2.7707309059905549E-002
  -2.7215694337920870E-002
  -2.6776352387715391E-002
  -2.6370716224151176E-002
  -2.5973271342320615E-002
  -2.5567895619371266E-002
  -2.5151769822075620E-002
  -2.4704116974069153E-002
  -2.4194690407221397E-002
  -2.3585818022060924E-002
  -2.2824627062022613E-002
  -2.1829790675082426E-002
  -2.0459497510844585E-002
  -1.8402693780991405E-002
  -1.4894504735323982E-002
  -1.5063105687127432E-002
  -2.9921342269711569E-002
  -2.9619178693525431E-002
  -2.7399157344239675E-002
  -2.5968025865985535E-002
  -2.4764891476500430E-002
  -2.3847766406648183E-002
  -2.3120472720304430E-002
  -2.2517692753279979E-002
  -2.1996034495884522E-002
  -2.1522669079417217E-002
  -2.1068809404017688E-002
  -2.0607306703113001E-002
  -2.0108692513328450E-002
  -1.9538685772720089E-002
  -1.8853254829353645E-002
  -1.7988928328906455E-002
  -1.6831740028434346E-002
  -1.5196520288872624E-002
  -1.2794987824488416E-002
  -7.9767075857056450E-003
  -8.2084443766324827E-003
  -2.8058130396612750E-002
  -2.7787352541394712E-002
  -2.4795594673870550E-002
  -2.2957429381492641E-002
  -2.1664150710829687E-002
  -2.0689533600300233E-002
  -1.9913338559052366E-002
  -1.9266935324425718E-002
  -1.8704692119026568E-002
  -1.8191475442389322E-002
  -1.7696041935274121E-002
  -1.7188798970205268E-002
  -1.6635692994260425E-002
  -1.5995477782259907E-002
  -1.5205684989335793E-002
  -1.4184897937254057E-002
  -1.2804059071732250E-002
  -1.0454664086320568E-002
  -6.7291619995168720E-003
  -1.4826244445959574E-003
  -1.7670985146987900E-003
  -2.6154070128159415E-002
  -2.5891543205476986E-002
  -2.2513694686306547E-002
  -2.0594288646159777E-002
  -1.9245251650839415E-002
  -1.8217670075413112E-002
  -1.7390014133680350E-002
  -1.6693251602641325E-002
  -1.6080882743977655E-002
  -1.5515294916447788E-002
  -1.4960865857115865E-002
  -1.4378757116503988E-002
  -1.3733842860849218E-002
  -1.2977683223042311E-002
  -1.2010753392022818E-002
  -1.0404126506527858E-002
  -8.2289462451638328E-003
  -5.2799512699393336E-003
  -1.2082174831441344E-003
   5.9312823161965754E-003
   5.9224557762582730E-003
  -2.4256493787764420E-002
  -2.4080190824841960E-002
  -2.0652746706927932E-002
  -1.8670263768345685E-002
  -1.7259120935079635E-002
  -1.6166888419502250E-002
  -1.5273813119876068E-002
  -1.4505016702131446E-002
  -1.3810650064289373E-002
  -1.3154171298741515E-002
  -1.2497327597482741E-002
  -1.1755432698751090E-002
  -1.0712384095990660E-002
  -9.5108805772443124E-003
  -8.0707047781105601E-003
  -6.2827420652864880E-003
  -3.9695014167852186E-003
  -7.6351041317645465E-004
   5.8901205326254190E-003
   6.0544648625660323E-003
   6.0273626312405569E-003
  -2.2659297416839454E-002
  -2.2551996828815628E-002
  -1.9077441995902670E-002
  -1.7024056013056475E-002
  -1.5536061023870501E-002
  -1.4354841421575610E-002
  -1.3353416897211525E-002
  -1.2461639270222490E-002
  -1.1544440013061388E-002
  -1.0496933400883715E-002
  -9.4758100219514991E-003
  -8.4312080683120148E-003
  -7.3090876697746868E-003
  -6.0449193568418687E-003
  -4.5422386444666793E-003
  -2.6564055250007709E-003
  -3.2902012262499720E-004
   3.5185534154400359E-003
   5.9895723167632036E-003
   6.1093949686823294E-003
   6.0800680242560088E-003
  -2.1259960360911635E-002
  -2.1204803631070475E-002
  -1.7676766372061468E-002
  -1.5538075505811580E-002
  -1.3938512851593332E-002
  -1.2612431103107084E-002
  -1.1288681340658384E-002
  -9.9131865655445114E-003
  -8.6886122417987131E-003
  -7.5698282222627132E-003
  -6.5002951130981720E-003
  -5.4176219304506983E-003
  -4.2636745080827420E-003
  -2.9503441943609320E-003
  -1.3526602999913622E-003
   5.3243456344916876E-004
   3.0152780621710714E-003
   5.9650970508989170E-003
   6.0412969936046966E-003
   6.1503921176042408E-003
   6.1173657864446850E-003
  -1.9967792488681597E-002
  -1.9952668582483502E-002
  -1.6358931544056640E-002
  -1.4100036182036712E-002
  -1.2325780877392790E-002
  -1.0446506481995958E-002
  -8.7301284927132836E-003
  -7.2747069309675224E-003
  -6.0065566688581812E-003
  -4.8513558528072813E-003
  -3.7513094674826333E-003
  -2.6276262350226199E-003
  -1.4071968631272705E-003
  -1.1770601667277881E-004
   1.8073565949061517E-003
   4.1082335314905991E-003
   5.9678037362462140E-003
   6.0202824598479887E-003
   6.0787498750892680E-003
   6.1830053486140865E-003
   6.1483541645361035E-003
  -1.8702578992499951E-002
  -1.8718390962635480E-002
  -1.5029427986055478E-002
  -1.2596071671805945E-002
  -1.0176666388431227E-002
  -7.9999477778745585E-003
  -6.2174708635314080E-003
  -4.7200408407163863E-003
  -3.4160116957421736E-003
  -2.2104032056568207E-003
  -1.0620415806029762E-003
   3.7628909270812289E-005
   1.5822311689418416E-003
   3.0878121235980490E-003
   5.9448295731059980E-003
   5.9843079697093904E-003
   6.0176519887556639E-003
   6.0546302740300626E-003
   6.1085305222738613E-003
   6.2115908987293005E-003
   6.1762780432337286E-003
  -1.7382137101176684E-002
  -1.7417116600786910E-002
  -1.3589990961499565E-002
  -1.0576163522671595E-002
  -7.7457637021729926E-003
  -5.4941117792612435E-003
  -3.6652371136567680E-003
  -2.0990239235989228E-003
  -7.7009297319672893E-004
   4.5212145160654474E-004
   1.8974981434983337E-003
   3.2503243258741443E-003
   5.9432742056571121E-003
   5.9743823368715995E-003
   6.0020388094195040E-003
   6.0244360074801591E-003
   6.0501223888787450E-003
   6.0829955320470513E-003
   6.1355376085147758E-003
   6.2387833582716211E-003
   6.2033791189992195E-003
  -1.5909956101205259E-002
  -1.5933093185312136E-002
  -1.1878514727072314E-002
  -8.0630124086562022E-003
  -5.1232212228994956E-003
  -2.7996250924006158E-003
  -9.1069101269073576E-004
   8.3242302122474472E-004
   2.2696843307273532E-003
   3.6091697690785727E-003
   5.9511554383890140E-003
   5.9786710477509209E-003
   6.0017233406664556E-003
   6.0181684077495095E-003
   6.0360628288754900E-003
   6.0551474387683154E-003
   6.0785298922288204E-003
   6.1103381309694739E-003
   6.1625208239249963E-003
   6.2666637114539092E-003
   6.2315637720158357E-003
  -1.4142806156409431E-002
  -1.4141605008293803E-002
  -9.1718690381458294E-003
  -5.1598776622678172E-003
  -2.1486582230521752E-003
   3.1552206135760833E-004
   2.4332368055361331E-003
   5.3424881822724275E-003
   5.9657494895811979E-003
   5.9885800043547053E-003
   6.0100043714125711E-003
   6.0251165460902213E-003
   6.0390084240639430E-003
   6.0526563750892522E-003
   6.0676530189966178E-003
   6.0854477538549237E-003
   6.1080885182048916E-003
   6.1395323917363305E-003
   6.1917170614658882E-003
   6.2972470758900423E-003
   6.2627476617061872E-003
  -1.1710194591465299E-002
  -1.1747792044110257E-002
  -5.8479829210061453E-003