# vtk DataFile Version 2.0
3D Unstructured Grid of Linear Triangles
ASCII
DATASET UNSTRUCTURED_GRID
FIELD FieldData  1
TIME 1 1 double
        7200.00000
POINTS     7056 float
      0.00000000E+00  1.00000000E+01  1.00000000E+00
      5.00000000E-01  1.00000000E+01  9.93333333E-01
      1.00000000E+00  1.00000000E+01  9.83333333E-01
      1.50000000E+00  1.00000000E+01  9.73333333E-01
      2.00000000E+00  1.00000000E+01  9.63333333E-01
      2.50000000E+00  1.00000000E+01  9.53333333E-01
      3.00000000E+00  1.00000000E+01  9.43333333E-01
      3.50000000E+00  1.00000000E+01  9.33333333E-01
      4.00000000E+00  1.00000000E+01  9.23333333E-01
      4.50000000E+00  1.00000000E+01  9.13333333E-01
      5.00000000E+00  1.00000000E+01  9.03333333E-01
      5.50000000E+00  1.00000000E+01  8.93333333E-01
      6.00000000E+00  1.00000000E+01  8.83333333E-01
      6.50000000E+00  1.00000000E+01  8.73333333E-01
      7.00000000E+00  1.00000000E+01  8.63333333E-01
      7.50000000E+00  1.00000000E+01  8.53333333E-01
      8.00000000E+00  1.00000000E+01  8.43333333E-01
      8.50000000E+00  1.00000000E+01  8.33333333E-01
      9.00000000E+00  1.00000000E+01  8.23333333E-01
      9.50000000E+00  1.00000000E+01  8.13333333E-01
      1.00000000E+01  1.00000000E+01  8.10000000E-01
      0.00000000E+00  9.50000000E+00  9.83333333E-01
      5.00000000E-01  9.50000000E+00  9.82500000E-01
      1.00000000E+00  9.50000000E+00  9.72500000E-01
      1.50000000E+00  9.50000000E+00  9.62500000E-01
      2.00000000E+00  9.50000000E+00  9.52500000E-01
      2.50000000E+00  9.50000000E+00  9.42500000E-01
      3.00000000E+00  9.50000000E+00  9.32500000E-01
      3.50000000E+00  9.50000000E+00  9.22500000E-01
      4.00000000E+00  9.50000000E+00  9.12500000E-01
      4.50000000E+00  9.50000000E+00  9.02500000E-01
      5.00000000E+00  9.50000000E+00  8.92500000E-01
      5.50000000E+00  9.50000000E+00  8.82500000E-01
      6.00000000E+00  9.50000000E+00  8.72500000E-01
      6.50000000E+00  9.50000000E+00  8.62500000E-01
      7.00000000E+00  9.50000000E+00  8.52500000E-01
      7.50000000E+00  9.50000000E+00  8.42500000E-01
      8.00000000E+00  9.50000000E+00  8.32500000E-01
      8.50000000E+00  9.50000000E+00  8.22500000E-01
      9.00000000E+00  9.50000000E+00  8.12500000E-01
      9.50000000E+00  9.50000000E+00  8.02500000E-01
      1.00000000E+01  9.50000000E+00  8.01666667E-01
      0.00000000E+00  9.00000000E+00  9.58333333E-01
      5.00000000E-01  9.00000000E+00  9.57500000E-01
      1.00000000E+00  9.00000000E+00  9.47500000E-01
      1.50000000E+00  9.00000000E+00  9.37500000E-01
      2.00000000E+00  9.00000000E+00  9.27500000E-01
      2.50000000E+00  9.00000000E+00  9.17500000E-01
      3.00000000E+00  9.00000000E+00  9.07500000E-01
      3.50000000E+00  9.00000000E+00  8.97500000E-01
      4.00000000E+00  9.00000000E+00  8.87500000E-01
      4.50000000E+00  9.00000000E+00  8.77500000E-01
      5.00000000E+00  9.00000000E+00  8.67500000E-01
      5.50000000E+00  9.00000000E+00  8.57500000E-01
      6.00000000E+00  9.00000000E+00  8.47500000E-01
      6.50000000E+00  9.00000000E+00  8.37500000E-01
      7.00000000E+00  9.00000000E+00  8.27500000E-01
      7.50000000E+00  9.00000000E+00  8.17500000E-01
      8.00000000E+00  9.00000000E+00  8.07500000E-01
      8.50000000E+00  9.00000000E+00  7.97500000E-01
      9.00000000E+00  9.00000000E+00  7.87500000E-01
      9.50000000E+00  9.00000000E+00  7.77500000E-01
      1.00000000E+01  9.00000000E+00  7.76666667E-01
      0.00000000E+00  8.50000000E+00  9.33333333E-01
      5.00000000E-01  8.50000000E+00  9.32500000E-01
      1.00000000E+00  8.50000000E+00  9.22500000E-01
      1.50000000E+00  8.50000000E+00  9.12500000E-01
      2.00000000E+00  8.50000000E+00  9.02500000E-01
      2.50000000E+00  8.50000000E+00  8.92500000E-01
      3.00000000E+00  8.50000000E+00  8.82500000E-01
      3.50000000E+00  8.50000000E+00  8.72500000E-01
      4.00000000E+00  8.50000000E+00  8.62500000E-01
      4.50000000E+00  8.50000000E+00  8.52500000E-01
      5.00000000E+00  8.50000000E+00  8.42500000E-01
      5.50000000E+00  8.50000000E+00  8.32500000E-01
      6.00000000E+00  8.50000000E+00  8.22500000E-01
      6.50000000E+00  8.50000000E+00  8.12500000E-01
      7.00000000E+00  8.50000000E+00  8.02500000E-01
      7.50000000E+00  8.50000000E+00  7.92500000E-01
      8.00000000E+00  8.50000000E+00  7.82500000E-01
      8.50000000E+00  8.50000000E+00  7.72500000E-01
      9.00000000E+00  8.50000000E+00  7.62500000E-01
      9.50000000E+00  8.50000000E+00  7.52500000E-01
      1.00000000E+01  8.50000000E+00  7.51666667E-01
      0.00000000E+00  8.00000000E+00  9.08333333E-01
      5.00000000E-01  8.00000000E+00  9.07500000E-01
      1.00000000E+00  8.00000000E+00  8.97500000E-01
      1.50000000E+00  8.00000000E+00  8.87500000E-01
      2.00000000E+00  8.00000000E+00  8.77500000E-01
      2.50000000E+00  8.00000000E+00  8.67500000E-01
      3.00000000E+00  8.00000000E+00  8.57500000E-01
      3.50000000E+00  8.00000000E+00  8.47500000E-01
      4.00000000E+00  8.00000000E+00  8.37500000E-01
      4.50000000E+00  8.00000000E+00  8.27500000E-01
      5.00000000E+00  8.00000000E+00  8.17500000E-01
      5.50000000E+00  8.00000000E+00  8.07500000E-01
      6.00000000E+00  8.00000000E+00  7.97500000E-01
      6.50000000E+00  8.00000000E+00  7.87500000E-01
      7.00000000E+00  8.00000000E+00  7.77500000E-01
      7.50000000E+00  8.00000000E+00  7.67500000E-01
      8.00000000E+00  8.00000000E+00  7.57500000E-01
      8.50000000E+00  8.00000000E+00  7.47500000E-01
      9.00000000E+00  8.00000000E+00  7.37500000E-01
      9.50000000E+00  8.00000000E+00  7.27500000E-01
      1.00000000E+01  8.00000000E+00  7.26666667E-01
      0.00000000E+00  7.50000000E+00  8.83333333E-01
      5.00000000E-01  7.50000000E+00  8.82500000E-01
      1.00000000E+00  7.50000000E+00  8.72500000E-01
      1.50000000E+00  7.50000000E+00  8.62500000E-01
      2.00000000E+00  7.50000000E+00  8.52500000E-01
      2.50000000E+00  7.50000000E+00  8.42500000E-01
      3.00000000E+00  7.50000000E+00  8.32500000E-01
      3.50000000E+00  7.50000000E+00  8.22500000E-01
      4.00000000E+00  7.50000000E+00  8.12500000E-01
      4.50000000E+00  7.50000000E+00  8.02500000E-01
      5.00000000E+00  7.50000000E+00  7.92500000E-01
      5.50000000E+00  7.50000000E+00  7.82500000E-01
      6.00000000E+00  7.50000000E+00  7.72500000E-01
      6.50000000E+00  7.50000000E+00  7.62500000E-01
      7.00000000E+00  7.50000000E+00  7.52500000E-01
      7.50000000E+00  7.50000000E+00  7.42500000E-01
      8.00000000E+00  7.50000000E+00  7.32500000E-01
      8.50000000E+00  7.50000000E+00  7.22500000E-01
      9.00000000E+00  7.50000000E+00  7.12500000E-01
      9.50000000E+00  7.50000000E+00  7.02500000E-01
      1.00000000E+01  7.50000000E+00  7.01666667E-01
      0.00000000E+00  7.00000000E+00  8.58333333E-01
      5.00000000E-01  7.00000000E+00  8.57500000E-01
      1.00000000E+00  7.00000000E+00  8.47500000E-01
      1.50000000E+00  7.00000000E+00  8.37500000E-01
      2.00000000E+00  7.00000000E+00  8.27500000E-01
      2.50000000E+00  7.00000000E+00  8.17500000E-01
      3.00000000E+00  7.00000000E+00  8.07500000E-01
      3.50000000E+00  7.00000000E+00  7.97500000E-01
      4.00000000E+00  7.00000000E+00  7.87500000E-01
      4.50000000E+00  7.00000000E+00  7.77500000E-01
      5.00000000E+00  7.00000000E+00  7.67500000E-01
      5.50000000E+00  7.00000000E+00  7.57500000E-01
      6.00000000E+00  7.00000000E+00  7.47500000E-01
      6.50000000E+00  7.00000000E+00  7.37500000E-01
      7.00000000E+00  7.00000000E+00  7.27500000E-01
      7.50000000E+00  7.00000000E+00  7.17500000E-01
      8.00000000E+00  7.00000000E+00  7.07500000E-01
      8.50000000E+00  7.00000000E+00  6.97500000E-01
      9.00000000E+00  7.00000000E+00  6.87500000E-01
      9.50000000E+00  7.00000000E+00  6.77500000E-01
      1.00000000E+01  7.00000000E+00  6.76666667E-01
      0.00000000E+00  6.50000000E+00  8.33333333E-01
      5.00000000E-01  6.50000000E+00  8.32500000E-01
      1.00000000E+00  6.50000000E+00  8.22500000E-01
      1.50000000E+00  6.50000000E+00  8.12500000E-01
      2.00000000E+00  6.50000000E+00  8.02500000E-01
      2.50000000E+00  6.50000000E+00  7.92500000E-01
      3.00000000E+00  6.50000000E+00  7.82500000E-01
      3.50000000E+00  6.50000000E+00  7.72500000E-01
      4.00000000E+00  6.50000000E+00  7.62500000E-01
      4.50000000E+00  6.50000000E+00  7.52500000E-01
      5.00000000E+00  6.50000000E+00  7.42500000E-01
      5.50000000E+00  6.50000000E+00  7.32500000E-01
      6.00000000E+00  6.50000000E+00  7.22500000E-01
      6.50000000E+00  6.50000000E+00  7.12500000E-01
      7.00000000E+00  6.50000000E+00  7.02500000E-01
      7.50000000E+00  6.50000000E+00  6.92500000E-01
      8.00000000E+00  6.50000000E+00  6.82500000E-01
      8.50000000E+00  6.50000000E+00  6.72500000E-01
      9.00000000E+00  6.50000000E+00  6.62500000E-01
      9.50000000E+00  6.50000000E+00  6.52500000E-01
      1.00000000E+01  6.50000000E+00  6.51666667E-01
      0.00000000E+00  6.00000000E+00  8.08333333E-01
      5.00000000E-01  6.00000000E+00  8.07500000E-01
      1.00000000E+00  6.00000000E+00  7.97500000E-01
      1.50000000E+00  6.00000000E+00  7.87500000E-01
      2.00000000E+00  6.00000000E+00  7.77500000E-01
      2.50000000E+00  6.00000000E+00  7.67500000E-01
      3.00000000E+00  6.00000000E+00  7.57500000E-01
      3.50000000E+00  6.00000000E+00  7.47500000E-01
      4.00000000E+00  6.00000000E+00  7.37500000E-01
      4.50000000E+00  6.00000000E+00  7.27500000E-01
      5.00000000E+00  6.00000000E+00  7.17500000E-01
      5.50000000E+00  6.00000000E+00  7.07500000E-01
      6.00000000E+00  6.00000000E+00  6.97500000E-01
      6.50000000E+00  6.00000000E+00  6.87500000E-01
      7.00000000E+00  6.00000000E+00  6.77500000E-01
      7.50000000E+00  6.00000000E+00  6.67500000E-01
      8.00000000E+00  6.00000000E+00  6.57500000E-01
[...]
POINT_DATA     7056
SCALARS pressure float
LOOKUP_TABLE default
  -5.5257538276911676E-002
  -5.3959250994564265E-002
  -5.3196741179661881E-002
  -5.2706716679352318E-002
  -5.2311032420805245E-002
  -5.1983142963016371E-002
  -5.1704819064401324E-002
  -5.1459908695841799E-002
  -5.1238322206499688E-002
  -5.1029022865153914E-002
  -5.0817587109357021E-002
  -5.0595654429746804E-002
  -5.0346355810966456E-002
  -5.0049324253240338E-002
  -4.9677267929134052E-002
  -4.9184966570206545E-002
  -4.8502939773501709E-002
  -4.7531611597664364E-002
  -4.6148441681890674E-002
  -4.3339288931628292E-002
  -4.2126260528041380E-002
  -5.2518488000797135E-002
  -5.2055616849950435E-002
  -5.0755989522711702E-002
  -5.0150848458388818E-002
  -4.9632229730848139E-002
  -4.9193937978297499E-002
  -4.8814686707452322E-002
  -4.8477620108530517E-002
  -4.8168865283904599E-002
  -4.7875518444905105E-002
  -4.7581242355948378E-002
  -4.7271957830346475E-002
  -4.6930992941092889E-002
  -4.6537961849956795E-002
  -4.6065859005806793E-002
  -4.5473051111967970E-002
  -4.4696861681547295E-002
  -4.3625564851518465E-002
  -4.2050057689706245E-002
  -3.9007732763547819E-002
  -3.9077409384179453E-002
  -4.9570375409730263E-002
  -4.8964744902536883E-002
  -4.6838057359550073E-002
  -4.5687119922769540E-002
  -4.4788628309227523E-002
  -4.4080111105972798E-002
  -4.3496729340298503E-002
  -4.2998206518444410E-002
  -4.2557924443967096E-002
  -4.2148540752784548E-002
  -4.1748647121393027E-002
  -4.1336438328757476E-002
  -4.0886569695734239E-002
  -4.0368334042976690E-002
  -3.9740816734164970E-002
  -3.8946567827416262E-002
  -3.7891942638523565E-002
  -3.6402431167460052E-002
  -3.3975648330334562E-002
  -2.9164051320676065E-002
  -2.9168645804982025E-002
  -4.6781944997476933E-002
  -4.6374650941690271E-002
  -4.3767878866584835E-002
  -4.2367662128110509E-002
  -4.1293740670783417E-002
  -4.0434902981706572E-002
  -3.9718684795831544E-002
  -3.9100080226616360E-002
  -3.8543605334330364E-002
  -3.8020914205235165E-002
  -3.7504521119853425E-002
  -3.6963887292777595E-002
  -3.6363051493641732E-002
  -3.5649902652693279E-002
  -3.4733722297075734E-002
  -3.3411220033407595E-002
  -3.1544743138765867E-002
  -2.9089903533221231E-002
  -2.5716131251604126E-002
  -2.0854813840939200E-002
  -2.1001765714178961E-002
  -4.4284807995852847E-002
  -4.4046567053855672E-002
  -4.1216142178908503E-002
  -3.9598351955114311E-002
  -3.8336545630127776E-002
  -3.7300643976418107E-002
  -3.6411899934871615E-002
  -3.5616018850578253E-002
  -3.4861778617909601E-002
  -3.4094713790830206E-002
  -3.3253001469046646E-002
  -3.2348265349575481E-002
  -3.1375772625357297E-002
  -3.0277097221534845E-002
  -2.8977824370093386E-002
  -2.7381011306959760E-002
  -2.5349113383939012E-002
  -2.2666546757007668E-002
  -1.9151397044188626E-002
  -1.3494811005040103E-002
  -1.3655486884992166E-002
  -4.2200843616428389E-002
  -4.2057465281356593E-002
  -3.9019612581024689E-002
  -3.7156179995950347E-002
  -3.5631583354572442E-002
  -3.4263382502448869E-002
  -3.2909078871323355E-002
  -3.1691122260002820E-002
  -3.0618329883267952E-002
  -2.9632176184542912E-002
  -2.8680428292109594E-002
  -2.7713823591094994E-002
  -2.6678063444675028E-002
  -2.5509904094868731E-002
  -2.4130356556317831E-002
  -2.2411028696820271E-002
  -2.0205557521113100E-002
  -1.7261394049823922E-002
  -1.2634311651527430E-002
  -6.7793455306122685E-003
  -7.0003075904426738E-003
  -4.0388370814777468E-002
  -4.0289645679574465E-002
  -3.7024005741844793E-002
  -3.4796797748217041E-002
  -3.2648482271508676E-002
  -3.0794937367716057E-002
  -2.9278133280168098E-002
  -2.7999762735999863E-002
  -2.6877709704761787E-002
  -2.5845952109452827E-002
  -2.4848823282395311E-002
  -2.3832559554875652E-002
  -2.2735762520275569E-002
  -2.1474971322877477E-002
  -1.9973431904734672E-002
  -1.8148019490193793E-002
  -1.5259665302975454E-002
  -1.1477121973343708E-002
  -6.8095131964396568E-003
   6.0411780458328991E-006
   5.9404516049694719E-006
  -3.8746119847217715E-002
  -3.8658927824565613E-002
  -3.5074842763659506E-002
  -3.2095634422079494E-002
  -2.9642785403155691E-002
  -2.7720411585445449E-002
  -2.6157438798738754E-002
  -2.4832578053426316E-002
  -2.3661310764417982E-002
  -2.2577243658688573E-002
  -2.1511298036126170E-002
  -2.0402712536111114E-002
  -1.9210235335756002E-002
  -1.7831338952434550E-002
  -1.5789104003743903E-002
  -1.3325957130073913E-002
  -1.0292100915542715E-002
  -6.4309184204113592E-003
   6.0914386665391713E-006
   1.6316014180699025E-005
   2.2159747334096980E-005
  -3.7177103486551011E-002
  -3.7085267815180345E-002
  -3.2836556826735683E-002
  -2.9483455648920909E-002
  -2.6962660508697202E-002
  -2.4991708188642242E-002
  -2.3374640784525516E-002
  -2.1987071884551148E-002
  -2.0731087910682015E-002
  -1.9548042459159792E-002
  -1.8393183748090410E-002
  -1.6977645208197889E-002
  -1.5320302006270508E-002
  -1.3478769300116393E-002
  -1.1384674744129245E-002
  -8.8980920454819739E-003
  -5.7462232000430715E-003
   2.1918984007570025E-006
   1.5683148769524750E-005
   2.8999286865299671E-005
   3.0142526987332933E-005
  -3.5540029105725422E-002
  -3.5445445286757880E-002
  -3.0496575361927760E-002
  -2.7048517868478492E-002
  -2.4475553608357809E-002
  -2.2440274077388501E-002
  -2.0729938152790638E-002
  -1.9228483835239320E-002
  -1.7845082953714037E-002
  -1.6198003311110452E-002
  -1.4582279687621340E-002
  -1.2957761899703641E-002
  -1.1292151749168828E-002
  -9.4865814758237181E-003
  -7.4296138930213937E-003
  -4.7944828921382219E-003
   1.1589302520902063E-006
   8.6402892232315530E-006
   2.5288552752902907E-005
   3.7751265298166978E-005
   3.6828969803300566E-005
  -3.3503840693491771E-002
  -3.3411912713322452E-002
  -2.8184923547881081E-002
  -2.4673594766352482E-002
  -2.2021926561698622E-002
  -1.9864446114320096E-002
  -1.8029982525691293E-002
  -1.5990214249014333E-002
  -1.4103559011197532E-002
  -1.2382753438339897E-002
  -1.0777853690036188E-002
  -9.1788273047786455E-003
  -7.5606146778596306E-003
  -5.9096653469895358E-003
  -3.7164237836034538E-003
   1.9644597921194831E-006
   7.4248387430298419E-006
   1.6583570808250449E-005
   3.3931022763253119E-005
   4.5253045408134354E-005
   4.3572912281479677E-005
  -3.1074488463612694E-002
  -3.1042621268213944E-002
  -2.5796594076329945E-002
  -2.2202567730099768E-002
  -1.9418915972152367E-002
  -1.6919184807597125E-002
  -1.4414305488620844E-002
  -1.2250359156082470E-002
  -1.0382223904772645E-002
  -8.6959076739697126E-003
  -7.1250606706837671E-003
  -5.5645538484280282E-003
  -3.9753989816579960E-003
  -2.2132632725587282E-003
   2.9735738601653843E-006
   8.2428654383164342E-006
   1.5694453365767798E-005
   2.5057517892481603E-005
   4.1381805777117856E-005
   5.2794433979316360E-005
   5.0835367298342007E-005
  -2.8460488843775625E-002
  -2.8483045052386451E-002
  -2.3185595475417212E-002
  -1.9459398126563617E-002
  -1.6191205280595998E-002
  -1.3136915375053794E-002
  -1.0581785753840205E-002
  -8.4851279226238578E-003
  -6.7093349718876233E-003
  -4.9954721995481375E-003
  -3.4302314089744781E-003
  -1.1756503122786934E-003
   2.9460428116354685E-006
   6.0569455753274242E-006
   1.0156414750928618E-005
   1.7061871077043197E-005
   2.3660184352999521E-005
   3.2479905214324876E-005
   4.8929781149329105E-005
   6.0905701399858957E-005
   5.9057129108570921E-005
  -2.5500858037039789E-002
  -2.5546943988335548E-002
  -2.0148492356132787E-002
  -1.5932614515445691E-002
  -1.2109947348923294E-002
  -9.0543043747236054E-003
  -6.4675307958488469E-003
  -4.6143503346473139E-003
  -2.8899487726955996E-003
   2.1645292156242455E-006
   5.1486624822458009E-006
   7.3724178865278453E-006
   1.0869294894703192E-005
   1.6210688901561684E-005
   2.0523115016079146E-005
   2.5452943530689177E-005
   3.1681751503809069E-005
   4.0527851509714390E-005
   5.7183958528078597E-005
   7.0114465202881344E-005
   6.8664317696931728E-005
  -2.1983570805098569E-002
  -2.1977342229528622E-002
  -1.6244171703891447E-002
  -1.1398617428083225E-002
  -7.4179332504836458E-003
  -4.5473948549860626E-003
   4.0902718279889993E-007
   4.3255519233916883E-006
   7.4529068333341680E-006
   1.0800206991034108E-005
   1.5746780035576480E-005
   1.9313943281222344E-005
   2.2605917892873249E-005
   2.6017303487701002E-005
   2.9928896541387359E-005
   3.4697178533684496E-005
   4.0938439636443536E-005
   4.9913808364507210E-005
   6.6810867361929424E-005
   8.1007808148621000E-005
   8.0185288330217685E-005
  -1.7455304861087925E-002
  -1.7469275330591966E-002
  -1.0829274888205056E-002
  -6.1248495277550254E-003
   1.8560623270944718E-006
   6.6869138447696151E-006
   1.0852192802797072E-005
   1.5742124444464163E-005
   2.1328694545490453E-005
   2.4934048686570236E-005
   2.8065012545443308E-005
   3.1023372009039768E-005
   3.4055867212332793E-005
   3.7353144345072644E-005
   4.1232760615661175E-005
   4.6046978890138896E-005
   5.2381645264727229E-005
   6.1512334970633767E-005
   7.8664605865024116E-005
   9.4390666270239551E-005
   9.4329417743853924E-005
  -1.0878195896401367E-002
  -1.0632769184251878E-002
  -3.4766930297502338E-003
   6.2743879419375484E-006
   1.4125610821079481E-005
   2.1946841205096533E-005
   2.8513914390154045E-005
   3.3089612925302988E-005
   3.6719716095817564E-005
   3.9922692219301053E-005
   4.2841430155003961E-005
   4.5720041257398915E-005
   4.8752791179997036E-005
   5.2098543927707882E-005
   5.6028379319891198E-005
   6.0926721379324391E-005
   6.7385668522838764E-005
   7.6682452752851224E-005
   9.4092320981587507E-005
   1.1152140549380819E-004
   1.1218814928428189E-004
  -3.4247677021444723E-003
   2.1833522603236286E-006
   1.3214426598060683E-005
   2.4908672980815636E-005
   3.6862628780095286E-005
   4.4227050190485626E-005
   4.9568980431729452E-005
   5.3863959419098674E-005
   5.7428467624886330E-005
   6.0615907986895051E-005
   6.3588888824710869E-005
   6.6515219783821536E-005
   6.9607209715325780E-005
   7.3047872568965318E-005
   7.7080768856026900E-005
   8.2091065575947840E-005
   8.8691732474670742E-005
   9.8164219657706646E-005
   1.1582768300274804E-004
   1.3486326940969145E-004
   1.3577773417495131E-004
   2.6516966659220797E-005
   2.7807964197612516E-005
   4.6322843263278705E-005
   6.3638819925785432E-005
   7.3261743056020023E-005
   8.0109222377822863E-005
   8.5415237473289847E-005
   8.9778655080447169E-005
   9.3478273628417899E-005
   9.6761697047866344E-005
   9.9847916323799791E-005
   1.0289256870669112E-004
   1.0609028579435122E-004
   1.0965345226050792E-004
   1.1382716164968273E-004
   1.1898605315242677E-004
   1.2575333140191642E-004
   1.3541177640352569E-004
   1.5327558869111357E-004
   1.7240119353460152E-004
   1.7088305390227773E-004
   1.2106708124410182E-004
   1.1401968375766906E-004
   1.4519483464905692E-004
   1.7270865172512413E-004
   1.9257326556702917E-004
   2.1011935125823293E-004
   2.2667003812612500E-004
   2.4281510341909922E-004
   2.5890356155725051E-004
   2.7516805679256800E-004
   2.9183632609085681E-004
   3.0912217045500840E-004
   3.2726189871682640E-004
   3.4656122768165609E-004
   3.6741579796557529E-004
   3.9040321017131475E-004
   4.1648286701837525E-004
   4.4755711274130236E-004
   4.9036921005584440E-004
   5.3568415586112850E-004
   4.3463211608528180E-004
   1.6126604552994361E-004
   1.7147000882414309E-004
   2.0765205115485177E-004
   2.4917836486488220E-004
   2.7982858160945014E-004
   3.0807118839072439E-004
   3.3561393109776927E-004
   3.6321154024844700E-004
   3.9128176690968040E-004
   4.2009705068782831E-004
   4.4988479786878911E-004
   4.8088672213393861E-004
   5.1337872969409268E-004
   5.4771779078602778E-004
   5.8439442864291415E-004
   6.2411685109154715E-004
   6.6802026092525207E-004
   7.1823363286024542E-004
   7.8106297594625763E-004
   8.5436657327056281E-004
   8.9870580445516163E-004
  -4.9635310891378369E-002
  -4.8442306705104167E-002
  -4.7668857906956838E-002
  -4.7173319969592030E-002
  -4.6773449410499886E-002
  -4.6442297272889475E-002
  -4.6161306910486796E-002
  -4.5914171781221085E-002
  -4.5690636406486275E-002
  -4.5479539131823794E-002
  -4.5266428992665135E-002
  -4.5042753413180300E-002
  -4.4791548950760735E-002
  -4.4492183736649954E-002
  -4.4117032432399131E-002
  -4.3619554310827487E-002
  -4.2926012938403896E-002
  -4.1924036689644721E-002
  -4.0492270910120060E-002
  -3.7628926036611346E-002
  -3.6527583801387417E-002
  -4.6993345519631163E-002
  -4.6746371798653041E-002
  -4.5432706989234795E-002
  -4.4823332686227541E-002
  -4.4301150563772630E-002
  -4.3859194121664488E-002
  -4.3476101380284377E-002
  -4.3134741541586447E-002
  -4.2821023439248922E-002
  -4.2521568017640163E-002
  -4.2219573203488833E-002
  -4.1899943662917313E-002
  -4.1544412439844108E-002
  -4.1131372540971399E-002
  -4.0635125189034657E-002
  -4.0013237801505119E-002
  -3.9200785689810877E-002
  -3.8082259597367836E-002
  -3.6440635198693623E-002
  -3.3332291468155098E-002
  -3.3506211616781058E-002
  -4.4036549632631782E-002
  -4.3637478853309902E-002
  -4.1496767324726895E-002
  -4.0311769304002557E-002
  -3.9373571193735045E-002
  -3.8634790886265709E-002
  -3.8027135682211471E-002
  -3.7508188097242559E-002
  -3.7049924804373455E-002
  -3.6624101746974676E-002
  -3.6208429599817231E-002
  -3.5780300761921034E-002
  -3.5313606276493249E-002
  -3.4776749318943395E-002
  -3.4127399167794788E-002
  -3.3306537292167489E-002
  -3.2220546253148158E-002
  -3.0697998197569496E-002
  -2.8270888159569098E-002
  -2.3399750460067117E-002
  -2.3473856080447733E-002
  -4.1227376076554932E-002
  -4.0999611427500325E-002
  -3.8313715956897101E-002
  -3.6858837575259810E-002
  -3.5747426464921316E-002
  -3.4860764373119732E-002
  -3.4122686392071826E-002
  -3.3486070288657424E-002
  -3.2914067717215154E-002
  -3.2377111647542145E-002
  -3.1847104844658275E-002
  -3.1293720219958458E-002
  -3.0681336826254874E-002
  -2.9959193768408006E-002
  -2.9041686119673449E-002
  -2.7732726277889509E-002
  -2.5818019550962839E-002
  -2.3306686388596266E-002
  -1.9872455635642605E-002
  -1.4960262045192010E-002
  -1.5132379148538539E-002
  -3.8656894991701780E-002
  -3.8567694032357318E-002
  -3.5666143672358361E-002
  -3.3999775901591846E-002
  -3.2706426367515522E-002
  -3.1648298826431769E-002
  -3.0743820220048644E-002
  -2.9939195591984307E-002
  -2.9184159315444946E-002
  -2.8425509624596276E-002
  -2.7590416707448526E-002
  -2.6659662966550965E-002
  -2.5659446631737286E-002
  -2.4532033609114729E-002
  -2.3201839004023613E-002
  -2.1570745852599150E-002
  -1.9501944007890883E-002
  -1.6781223511318197E-002
  -1.3225251567500651E-002
  -7.5547256092542373E-003
  -7.7285713640757973E-003
  -3.6517606860926248E-002
  -3.6502082514684508E-002
  -3.3402486271370636E-002
  -3.1499802917701818E-002
  -2.9957343945962629E-002
  -2.8595689436292579E-002
  -2.7245842530229842E-002
  -2.5994519107170627E-002
  -2.4892431684963662E-002
  -2.3880641315724090E-002
  -2.2904859550069920E-002
  -2.1915073281894848E-002
  -2.0856944691643304E-002
  -1.9666298683147954E-002
  -1.8264184385981760E-002
  -1.6521328687392364E-002
  -1.4290129993196099E-002
  -1.1336859567858525E-002
  -6.6771563547966366E-003
  -7.9986692312877241E-004
  -1.0225780958153631E-003
  -3.4663271194874133E-002
  -3.4675446071551826E-002
  -3.1360185573882884E-002
  -2.9119564421603825E-002
  -2.6977251546019165E-002
  -2.5076809950791368E-002
  -2.3520669934440228E-002
  -2.2211001425533009E-002
  -2.1064048348736899E-002
  -2.0011394500887070E-002
  -1.8995735369387812E-002
  -1.7962442434668664E-002
  -1.6850366598247145E-002
  -1.5574123848298827E-002
  -1.4055253753528221E-002
  -1.2215235870713591E-002
  -9.3196287123158573E-003
  -5.5139347444429212E-003
  -8.3029073058931368E-004
   5.9576509322105935E-003
   5.9490799864495300E-003
  -3.2988714001172419E-002
  -3.2997553662276233E-002
  -2.9389276888656623E-002
  -2.6404419808784451E-002
  -2.3893009435007405E-002
  -2.1925165467565347E-002
  -2.0329460830668496E-002
  -1.8980082100519730E-002
  -1.7789623280913949E-002
  -1.6689954956209625E-002
  -1.5611050833539291E-002
  -1.4489909521716578E-002
  -1.3285000504602212E-002
  -1.1905586807181862E-002
  -9.8526640370888065E-003
  -7.3742496090252350E-003
  -4.3218317482118093E-003
  -4.4930069891367349E-004
   5.9107009012919921E-003
   6.0717056105911065E-003
   6.0476034628052693E-003
  -3.1396107911080717E-002
  -3.1386449430149579E-002
  -2.7153335719550021E-002
  -2.3725018796107819E-002
  -2.1148997841869927E-002
  -1.9141083600818936E-002
  -1.7498327855719295E-002
  -1.6092667079131397E-002
  -1.4822693576403999E-002
  -1.3626830851558500E-002
  -1.2462426805520397E-002
  -1.1050646006546205E-002
  -9.3819958920014455E-003
  -7.5289778269270668E-003
  -5.4229228300702176E-003
  -2.9235780508114432E-003
   2.3600828240557465E-004
   5.9094189019042107E-003
   6.0132500208762308E-003
   6.1253442328868439E-003
   6.0952596426008922E-003
  -2.9746977175910409E-002
  -2.9726434416109462E-002
  -2.4750960071763292E-002
  -2.1232653986159027E-002
  -1.8614258709596643E-002
  -1.6550344245661468E-002
  -1.4820674961854928E-002
  -1.3304283745945368E-002
  -1.1920025439847130E-002
  -1.0266473970802284E-002
  -8.6401062895511086E-003
  -7.0055638727235543E-003
  -5.3310553758076562E-003
  -3.5179660655777242E-003
  -1.4519623057751392E-003
   1.1882087415711184E-003
   5.9211200027556232E-003
   5.9970348576957053E-003
   6.0585989152208402E-003
   6.1644562287218527E-003
   6.1308664982561390E-003
  -2.7719574212744361E-002
  -2.7697041926230782E-002
  -2.2384866615628329E-002
  -1.8812115583395232E-002
  -1.6124975298826328E-002
  -1.3945219593166405E-002
  -1.2098956908424529E-002
  -1.0056643327176252E-002
  -8.1585453778937889E-003
  -6.4273279319998185E-003
  -4.8144435092875078E-003
  -3.2094598761232499E-003
  -1.5859900036864195E-003
   6.9114381300469175E-005
   2.2664169910196793E-003
   5.9382864743374921E-003
   5.9969004908448217E-003
   6.0371334143091010E-003
   6.0937087768041668E-003
   6.1964736319641677E-003
   6.1614500042134228E-003
  -2.5242941224550345E-002
  -2.5263402541666553E-002
  -1.9946429956960367E-002
  -1.6304592583439973E-002
  -1.3492906769672651E-002
  -1.0988933942679210E-002
  -8.4699300867399942E-003
  -6.2940238896464452E-003
  -4.4171979991923472E-003
  -2.7243535607530192E-003
  -1.1485270677873813E-003
   4.1374011694906144E-004
   2.0056950663057964E-003
   3.7628644062184329E-003
   5.9612960256344907E-003
   6.0043943460277895E-003
   6.0350155832499287E-003
   6.0703796247844784E-003
   6.1237475452349237E-003
   6.2258632477794305E-003
   6.1901866411001646E-003
  -2.2585728111102245E-002
  -2.2645832280931810E-002
  -1.7293547150774170E-002
  -1.3530306950330201E-002
  -1.0252890016171121E-002
  -7.1828535562002997E-003
  -4.6162465715132743E-003
  -2.5127679711091605E-003
  -7.3073926176327089E-004
   9.8615507862595173E-004
   2.5510525195572994E-003
   4.7805703635754124E-003
   5.9631934418465111E-003
   5.9911028144241487E-003
   6.0175802535640610E-003
   6.0418481767320360E-003
   6.0674563166340095E-003
   6.1002710027742504E-003
   6.1527834873988047E-003
   6.2552133568873772E-003
   6.2194020059765957E-003
  -1.9588343444073238E-002
  -1.9660064092585815E-002
  -1.4220378719624626E-002
  -9.9881891168206172E-003
  -6.1483383184522235E-003
  -3.0793781635754108E-003
  -4.8591856584267995E-004
   1.3679936152001578E-003
   3.0931067379926726E-003
   5.9454609859871162E-003
   5.9785276003726769E-003
   6.0012789580471300E-003
   6.0208891951225073E-003
   6.0387961208099800E-003
   6.0562663258898579E-003
   6.0756396025522892E-003
   6.0992408456223574E-003
   6.1311659762189018E-003
   6.1834135880334418E-003
   6.2867935168044115E-003
   6.2511938286018750E-003
  -1.6040870732891937E-002
  -1.6048560961933991E-002
  -1.0295933427589362E-002