# vtk DataFile Version 2.0
3D Unstructured Grid of Linear Triangles
ASCII
DATASET UNSTRUCTURED_GRID
FIELD FieldData  1
TIME 1 1 double
        3600.00000
POINTS     7056 float
      0.00000000E+00  1.00000000E+01  1.00000000E+00
      5.00000000E-01  1.00000000E+01  9.93333333E-01
      1.00000000E+00  1.00000000E+01  9.83333333E-01
      1.50000000E+00  1.00000000E+01  9.73333333E-01
      2.00000000E+00  1.00000000E+01  9.63333333E-01
      2.50000000E+00  1.00000000E+01  9.53333333E-01
      3.00000000E+00  1.00000000E+01  9.43333333E-01
      3.50000000E+00  1.00000000E+01  9.33333333E-01
      4.00000000E+00  1.00000000E+01  9.23333333E-01
      4.50000000E+00  1.00000000E+01  9.13333333E-01
      5.00000000E+00  1.00000000E+01  9.03333333E-01
      5.50000000E+00  1.00000000E+01  8.93333333E-01
      6.00000000E+00  1.00000000E+01  8.83333333E-01
      6.50000000E+00  1.00000000E+01  8.73333333E-01
      7.00000000E+00  1.00000000E+01  8.63333333E-01
      7.50000000E+00  1.00000000E+01  8.53333333E-01
      8.00000000E+00  1.00000000E+01  8.43333333E-01
      8.50000000E+00  1.00000000E+01  8.33333333E-01
      9.00000000E+00  1.00000000E+01  8.23333333E-01
      9.50000000E+00  1.00000000E+01  8.13333333E-01
      1.00000000E+01  1.00000000E+01  8.10000000E-01
      0.00000000E+00  9.50000000E+00  9.83333333E-01
      5.00000000E-01  9.50000000E+00  9.82500000E-01
      1.00000000E+00  9.50000000E+00  9.72500000E-01
      1.50000000E+00  9.50000000E+00  9.62500000E-01
      2.00000000E+00  9.50000000E+00  9.52500000E-01
      2.50000000E+00  9.50000000E+00  9.42500000E-01
      3.00000000E+00  9.50000000E+00  9.32500000E-01
      3.50000000E+00  9.50000000E+00  9.22500000E-01
      4.00000000E+00  9.50000000E+00  9.12500000E-01
      4.50000000E+00  9.50000000E+00  9.02500000E-01
      5.00000000E+00  9.50000000E+00  8.92500000E-01
      5.50000000E+00  9.50000000E+00  8.82500000E-01
      6.00000000E+00  9.50000000E+00  8.72500000E-01
      6.50000000E+00  9.50000000E+00  8.62500000E-01
      7.00000000E+00  9.50000000E+00  8.52500000E-01
      7.50000000E+00  9.50000000E+00  8.42500000E-01
      8.00000000E+00  9.50000000E+00  8.32500000E-01
      8.50000000E+00  9.50000000E+00  8.22500000E-01
      9.00000000E+00  9.50000000E+00  8.12500000E-01
      9.50000000E+00  9.50000000E+00  8.02500000E-01
      1.00000000E+01  9.50000000E+00  8.01666667E-01
      0.00000000E+00  9.00000000E+00  9.58333333E-01
      5.00000000E-01  9.00000000E+00  9.57500000E-01
      1.00000000E+00  9.00000000E+00  9.47500000E-01
      1.50000000E+00  9.00000000E+00  9.37500000E-01
      2.00000000E+00  9.00000000E+00  9.27500000E-01
      2.50000000E+00  9.00000000E+00  9.17500000E-01
      3.00000000E+00  9.00000000E+00  9.07500000E-01
      3.50000000E+00  9.00000000E+00  8.97500000E-01
      4.00000000E+00  9.00000000E+00  8.87500000E-01
      4.50000000E+00  9.00000000E+00  8.77500000E-01
      5.00000000E+00  9.00000000E+00  8.67500000E-01
      5.50000000E+00  9.00000000E+00  8.57500000E-01
      6.00000000E+00  9.00000000E+00  8.47500000E-01
      6.50000000E+00  9.00000000E+00  8.37500000E-01
      7.00000000E+00  9.00000000E+00  8.27500000E-01
      7.50000000E+00  9.00000000E+00  8.17500000E-01
      8.00000000E+00  9.00000000E+00  8.07500000E-01
      8.50000000E+00  9.00000000E+00  7.97500000E-01
      9.00000000E+00  9.00000000E+00  7.87500000E-01
      9.50000000E+00  9.00000000E+00  7.77500000E-01
      1.00000000E+01  9.00000000E+00  7.76666667E-01
      0.00000000E+00  8.50000000E+00  9.33333333E-01
      5.00000000E-01  8.50000000E+00  9.32500000E-01
      1.00000000E+00  8.50000000E+00  9.22500000E-01
      1.50000000E+00  8.50000000E+00  9.12500000E-01
      2.00000000E+00  8.50000000E+00  9.02500000E-01
      2.50000000E+00  8.50000000E+00  8.92500000E-01
      3.00000000E+00  8.50000000E+00  8.82500000E-01
      3.50000000E+00  8.50000000E+00  8.72500000E-01
      4.00000000E+00  8.50000000E+00  8.62500000E-01
      4.50000000E+00  8.50000000E+00  8.52500000E-01
      5.00000000E+00  8.50000000E+00  8.42500000E-01
      5.50000000E+00  8.50000000E+00  8.32500000E-01
      6.00000000E+00  8.50000000E+00  8.22500000E-01
      6.50000000E+00  8.50000000E+00  8.12500000E-01
      7.00000000E+00  8.50000000E+00  8.02500000E-01
      7.50000000E+00  8.50000000E+00  7.92500000E-01
      8.00000000E+00  8.50000000E+00  7.82500000E-01
      8.50000000E+00  8.50000000E+00  7.72500000E-01
      9.00000000E+00  8.50000000E+00  7.62500000E-01
      9.50000000E+00  8.50000000E+00  7.52500000E-01
      1.00000000E+01  8.50000000E+00  7.51666667E-01
      0.00000000E+00  8.00000000E+00  9.08333333E-01
      5.00000000E-01  8.00000000E+00  9.07500000E-01
      1.00000000E+00  8.00000000E+00  8.97500000E-01
      1.50000000E+00  8.00000000E+00  8.87500000E-01
      2.00000000E+00  8.00000000E+00  8.77500000E-01
      2.50000000E+00  8.00000000E+00  8.67500000E-01
      3.00000000E+00  8.00000000E+00  8.57500000E-01
      3.50000000E+00  8.00000000E+00  8.47500000E-01
      4.00000000E+00  8.00000000E+00  8.37500000E-01
      4.50000000E+00  8.00000000E+00  8.27500000E-01
      5.00000000E+00  8.00000000E+00  8.17500000E-01
      5.50000000E+00  8.00000000E+00  8.07500000E-01
      6.00000000E+00  8.00000000E+00  7.97500000E-01
      6.50000000E+00  8.00000000E+00  7.87500000E-01
      7.00000000E+00  8.00000000E+00  7.77500000E-01
      7.50000000E+00  8.00000000E+00  7.67500000E-01
      8.00000000E+00  8.00000000E+00  7.57500000E-01
      8.50000000E+00  8.00000000E+00  7.47500000E-01
      9.00000000E+00  8.00000000E+00  7.37500000E-01
      9.50000000E+00  8.00000000E+00  7.27500000E-01
      1.00000000E+01  8.00000000E+00  7.26666667E-01
      0.00000000E+00  7.50000000E+00  8.83333333E-01
      5.00000000E-01  7.50000000E+00  8.82500000E-01
      1.00000000E+00  7.50000000E+00  8.72500000E-01
      1.50000000E+00  7.50000000E+00  8.62500000E-01
      2.00000000E+00  7.50000000E+00  8.52500000E-01
      2.50000000E+00  7.50000000E+00  8.42500000E-01
      3.00000000E+00  7.50000000E+00  8.32500000E-01
      3.50000000E+00  7.50000000E+00  8.22500000E-01
      4.00000000E+00  7.50000000E+00  8.12500000E-01
      4.50000000E+00  7.50000000E+00  8.02500000E-01
      5.00000000E+00  7.50000000E+00  7.92500000E-01
      5.50000000E+00  7.50000000E+00  7.82500000E-01
      6.00000000E+00  7.50000000E+00  7.72500000E-01
      6.50000000E+00  7.50000000E+00  7.62500000E-01
      7.00000000E+00  7.50000000E+00  7.52500000E-01
      7.50000000E+00  7.50000000E+00  7.42500000E-01
      8.00000000E+00  7.50000000E+00  7.32500000E-01
      8.50000000E+00  7.50000000E+00  7.22500000E-01
      9.00000000E+00  7.50000000E+00  7.12500000E-01
      9.50000000E+00  7.50000000E+00  7.02500000E-01
      1.00000000E+01  7.50000000E+00  7.01666667E-01
      0.00000000E+00  7.00000000E+00  8.58333333E-01
      5.00000000E-01  7.00000000E+00  8.57500000E-01
      1.00000000E+00  7.00000000E+00  8.47500000E-01
      1.50000000E+00  7.00000000E+00  8.37500000E-01
      2.00000000E+00  7.00000000E+00  8.27500000E-01
      2.50000000E+00  7.00000000E+00  8.17500000E-01
      3.00000000E+00  7.00000000E+00  8.07500000E-01
      3.50000000E+00  7.00000000E+00  7.97500000E-01
      4.00000000E+00  7.00000000E+00  7.87500000E-01
      4.50000000E+00  7.00000000E+00  7.77500000E-01
      5.00000000E+00  7.00000000E+00  7.67500000E-01
      5.50000000E+00  7.00000000E+00  7.57500000E-01
      6.00000000E+00  7.00000000E+00  7.47500000E-01
      6.50000000E+00  7.00000000E+00  7.37500000E-01
      7.00000000E+00  7.00000000E+00  7.27500000E-01
      7.50000000E+00  7.00000000E+00  7.17500000E-01
      8.00000000E+00  7.00000000E+00  7.07500000E-01
      8.50000000E+00  7.00000000E+00  6.97500000E-01
      9.00000000E+00  7.00000000E+00  6.87500000E-01
      9.50000000E+00  7.00000000E+00  6.77500000E-01
      1.00000000E+01  7.00000000E+00  6.76666667E-01
      0.00000000E+00  6.50000000E+00  8.33333333E-01
      5.00000000E-01  6.50000000E+00  8.32500000E-01
      1.00000000E+00  6.50000000E+00  8.22500000E-01
      1.50000000E+00  6.50000000E+00  8.12500000E-01
      2.00000000E+00  6.50000000E+00  8.02500000E-01
      2.50000000E+00  6.50000000E+00  7.92500000E-01
      3.00000000E+00  6.50000000E+00  7.82500000E-01
      3.50000000E+00  6.50000000E+00  7.72500000E-01
      4.00000000E+00  6.50000000E+00  7.62500000E-01
      4.50000000E+00  6.50000000E+00  7.52500000E-01
      5.00000000E+00  6.50000000E+00  7.42500000E-01
      5.50000000E+00  6.50000000E+00  7.32500000E-01
      6.00000000E+00  6.50000000E+00  7.22500000E-01
      6.50000000E+00  6.50000000E+00  7.12500000E-01
      7.00000000E+00  6.50000000E+00  7.02500000E-01
      7.50000000E+00  6.50000000E+00  6.92500000E-01
      8.00000000E+00  6.50000000E+00  6.82500000E-01
      8.50000000E+00  6.50000000E+00  6.72500000E-01
      9.00000000E+00  6.50000000E+00  6.62500000E-01
      9.50000000E+00  6.50000000E+00  6.52500000E-01
      1.00000000E+01  6.50000000E+00  6.51666667E-01
      0.00000000E+00  6.00000000E+00  8.08333333E-01
      5.00000000E-01  6.00000000E+00  8.07500000E-01
      1.00000000E+00  6.00000000E+00  7.97500000E-01
      1.50000000E+00  6.00000000E+00  7.87500000E-01
      2.00000000E+00  6.00000000E+00  7.77500000E-01
      2.50000000E+00  6.00000000E+00  7.67500000E-01
      3.00000000E+00  6.00000000E+00  7.57500000E-01
      3.50000000E+00  6.00000000E+00  7.47500000E-01
      4.00000000E+00  6.00000000E+00  7.37500000E-01
      4.50000000E+00  6.00000000E+00  7.27500000E-01
      5.00000000E+00  6.00000000E+00  7.17500000E-01
      5.50000000E+00  6.00000000E+00  7.07500000E-01
      6.00000000E+00  6.00000000E+00  6.97500000E-01
      6.50000000E+00  6.00000000E+00  6.87500000E-01
      7.00000000E+00  6.00000000E+00  6.77500000E-01
      7.50000000E+00  6.00000000E+00  6.67500000E-01
      8.00000000E+00  6.00000000E+00  6.57500000E-01
[...]
POINT_DATA     7056
SCALARS pressure float
LOOKUP_TABLE default
 -0.15464534905559016     
 -0.15384919151713186     
 -0.15362876963544059     
 -0.15352239995043707     
 -0.15340248328403649     
 -0.15328114801082313     
 -0.15316383722467600     
 -0.15303880965322533     
 -0.15290801998981543     
 -0.15275854255401070     
 -0.15259357342021501     
 -0.15240449349180890     
 -0.15215586952736757     
 -0.15184891269644202     
 -0.15144896472369088     
 -0.15091443382645883     
 -0.15019855905994625     
 -0.14919180298192447     
 -0.14816177211028059     
 -0.14487398739924784     
 -0.14403288556022556     
 -0.15322615494558631     
 -0.15276536341471267     
 -0.15163235299704528     
 -0.15176897829264957     
 -0.15165629289356344     
 -0.15156143571033787     
 -0.15145270260501875     
 -0.15132754076205004     
 -0.15118949433396725     
 -0.15102661841119350     
 -0.15082633016005964     
 -0.15057762419558046     
 -0.15025711898706420     
 -0.14984835326109130     
 -0.14931109354391861     
 -0.14860292320373170     
 -0.14766300760289236     
 -0.14640159041131698     
 -0.14490958037272611     
 -0.14148518142670011     
 -0.14135692848213632     
 -0.15234814150738590     
 -0.15149196327034450     
 -0.14998297117371581     
 -0.15003574035040340     
 -0.14970264143617948     
 -0.14940643462198339     
 -0.14909755250878970     
 -0.14876599913131158     
 -0.14840611080425301     
 -0.14799893643673476     
 -0.14753497356649981     
 -0.14698743575111287     
 -0.14632925078647860     
 -0.14552631878066039     
 -0.14453275878897309     
 -0.14329030090104250     
 -0.14172615276950323     
 -0.13975050522343435     
 -0.13742218474719753     
 -0.13325338270849416     
 -0.13259698489906852     
 -0.15155167619074816     
 -0.15109642923214811     
 -0.14936455039855476     
 -0.14922542759081034     
 -0.14868906110013899     
 -0.14817217364361843     
 -0.14762868449805308     
 -0.14703980279237552     
 -0.14639688896002853     
 -0.14568074789922728     
 -0.14486816934928071     
 -0.14393036739868406     
 -0.14283365802483741     
 -0.14152811105146351     
 -0.13995978738184928     
 -0.13806491705996002     
 -0.13578197947315709     
 -0.13306879523927950     
 -0.12997159375209422     
 -0.12522610329983319     
 -0.12481760803575515     
 -0.15052708175088028     
 -0.15022925752062102     
 -0.14814872439230581     
 -0.14772805448676668     
 -0.14692858320195018     
 -0.14612729132518490     
 -0.14527636144665484     
 -0.14436363715100958     
 -0.14337159426655000     
 -0.14227589725503847     
 -0.14104788105394250     
 -0.13965016040224343     
 -0.13804100433454802     
 -0.13617124306600167     
 -0.13400328905969580     
 -0.13150188495066928     
 -0.12860898511234065     
 -0.12526049078524015     
 -0.12144751542270078     
 -0.11609997653340164     
 -0.11569733425657557     
 -0.14920784251254265     
 -0.14900831219326918     
 -0.14657521695196887     
 -0.14579394741785351     
 -0.14465485661329983     
 -0.14348978684312735     
 -0.14225888150973287     
 -0.14094342189526640     
 -0.13952008598382490     
 -0.13796092180060626     
 -0.13623561702326870     
 -0.13431628280347566     
 -0.13217876567411996     
 -0.12978203379600117     
 -0.12707029145603324     
 -0.12398652056701696     
 -0.12046751335462925     
 -0.11643567265027886     
 -0.11181138258389146     
 -0.10554758276506426     
 -0.10508555220751663     
 -0.14745875618022380     
 -0.14729594797300186     
 -0.14447953152427392     
 -0.14324780497281864     
 -0.14169407640742707     
 -0.14009052906389047     
 -0.13839918282737415     
 -0.13659950926894240     
 -0.13467812750860161     
 -0.13262492983131402     
 -0.13041758204623541     
 -0.12801576916970409     
 -0.12537305770905016     
 -0.12243880231769164     
 -0.11915315261147401     
 -0.11544435819017135     
 -0.11119837438873208     
 -0.10619652403606966     
 -0.10051110581732568     
  -9.3597180457483942E-002
  -9.3091902801009513E-002
 -0.14511249177970806     
 -0.14496137108322471     
 -0.14170874882946960     
 -0.13993728329542468     
 -0.13788076357046372     
 -0.13575567984878717     
 -0.13354770079766465     
 -0.13125964595281436     
 -0.12886930276154643     
 -0.12634342863636550     
 -0.12364563186952661     
 -0.12073179878284207     
 -0.11754841919600874     
 -0.11402755010097343     
 -0.11004593383493023     
 -0.10543602169944924     
 -0.10029184421939082     
  -9.4604767378849347E-002
  -8.8355260830297558E-002
  -8.0552774344253134E-002
  -7.9981334223168846E-002
 -0.14196180013224488     
 -0.14183558830529336     
 -0.13806144358233308     
 -0.13566227813331649     
 -0.13305416902444372     
 -0.13041660216663301     
 -0.12771999256578459     
 -0.12494103189287495     
 -0.12205119981635162     
 -0.11901434814630420     
 -0.11578341881775270     
 -0.11228839695111137     
 -0.10839320076771092     
 -0.10403741432234827     
  -9.9307628938307121E-002
  -9.4162299352331003E-002
  -8.8572989368665589E-002
  -8.2075827969898305E-002
  -7.4832390332328275E-002
  -6.6644482213596534E-002
  -6.6094720894292636E-002
 -0.13775565401754922     
 -0.13767531459854548     
 -0.13334817737704438     
 -0.13033848930048703     
 -0.12719606923619675     
 -0.12402263702920613     
 -0.12079225159682702     
 -0.11747516473398907     
 -0.11402964030448653     
 -0.11036949264990642     
 -0.10637450182046440     
 -0.10212535648827036     
  -9.7631879478941544E-002
  -9.2867331006093484E-002
  -8.7774304728129512E-002
  -8.1915664876480374E-002
  -7.5514201737920394E-002
  -6.8588764165384203E-002
  -6.1263390810801906E-002
  -5.2826152609060560E-002
  -5.2315693818477657E-002
 -0.13239462747209105     
 -0.13233433426583521     
 -0.12751354336103946     
 -0.12385978631689018     
 -0.12012139049893626     
 -0.11635287534532461     
 -0.11250659503306035     
 -0.10846880887125737     
 -0.10422412692489623     
  -9.9886493280828825E-002
  -9.5430303807700234E-002
  -9.0853418228859034E-002
  -8.5989010100708224E-002
  -8.0556962379892100E-002
  -7.4815083463494608E-002
  -6.8697732427381364E-002
  -6.2277892829718948E-002
  -5.5278019641811414E-002
  -4.7454074899219108E-002
  -3.8892201639455948E-002
  -3.8434312644930559E-002
 -0.12581280302759010     
 -0.12567458480974658     
 -0.12032842555134880     
 -0.11595724726752298     
 -0.11150461058538802     
 -0.10687983183924207     
 -0.10220859903665697     
  -9.7558582724700402E-002
  -9.2935922397281615E-002
  -8.8306380525706454E-002
  -8.3324342074160673E-002
  -7.8151813449360896E-002
  -7.2835514509256974E-002
  -6.7312873995058156E-002
  -6.1681942042462544E-002
  -5.5607124699626448E-002
  -4.8922587697476698E-002
  -4.1725489119180247E-002
  -3.4155216973931063E-002
  -2.5604879473135340E-002
  -2.5210895824082386E-002
 -0.11767307115058824     
 -0.11741455553854496     
 -0.11141389312589185     
 -0.10600911209539114     
 -0.10066209304809379     
  -9.5457260496851673E-002
  -9.0425106726850141E-002
  -8.5360036246698898E-002
  -8.0126701304606654E-002
  -7.4957155269524095E-002
  -6.9781681275744870E-002
  -6.4646419741498193E-002
  -5.9597252176752623E-002
  -5.4048004524164861E-002
  -4.8252694705032469E-002
  -4.2148615278531698E-002
  -3.5892742638507613E-002
  -2.8895975369510135E-002
  -2.1321113431570810E-002
  -1.2989929849194800E-002
  -1.2744147154789748E-002
 -0.10725719350085766     
 -0.10689202173054271     
 -0.10004192276285040     
  -9.3987117011562912E-002
  -8.8234015404775407E-002
  -8.2387959845892436E-002
  -7.6712359468049496E-002
  -7.1241029828187918E-002
  -6.5991832672453538E-002
  -6.1035292739926972E-002
  -5.6001890226725116E-002
  -5.0842888739955690E-002
  -4.5614809084764153E-002
  -4.0338357794411493E-002
  -3.5078987156860426E-002
  -2.9320365374242291E-002
  -2.3195918814929925E-002
  -1.6604484101033556E-002
  -9.3580255646623818E-003
   1.1003587219520362E-004
   1.0950169013787691E-004
  -9.4484715218656659E-002
  -9.4070224470162861E-002
  -8.6851021898641467E-002
  -7.9949520442750319E-002
  -7.3474564468154438E-002
  -6.7430580024779321E-002
  -6.1881083628884739E-002
  -5.6586082459478972E-002
  -5.1330113599842506E-002
  -4.6282015741009090E-002
  -4.1428273985198626E-002
  -3.6753359474778563E-002
  -3.1965317152929530E-002
  -2.7082428761065813E-002
  -2.2156398766965336E-002
  -1.6958690113656964E-002
  -1.1366681907415693E-002
  -3.4774807271536305E-003
   6.0348379715433574E-004
   9.4739459017298357E-004
   8.3881107277812745E-004
  -7.9446934469972891E-002
  -7.8997613983535830E-002
  -7.1037965310047330E-002
  -6.3959407912245025E-002
  -5.7664062618491024E-002
  -5.1621150761569805E-002
  -4.6006542739334265E-002
  -4.0814494860571558E-002
  -3.6026008293250283E-002
  -3.1445290783066973E-002
  -2.7093975478116979E-002
  -2.2827386594317382E-002
  -1.8419546421309645E-002
  -1.4122737444051370E-002
  -1.0117221839626456E-002
  -4.3614288629800994E-003
   3.0729166442122589E-004
   8.0610245829681223E-004
   1.7530227806617125E-003
   2.2302835891500868E-003
   1.8652975465879055E-003
  -6.2284714360074656E-002
  -6.1941000703459863E-002
  -5.3873810894164549E-002
  -4.6496439583124216E-002
  -4.0250842372086093E-002
  -3.4849993078350711E-002
  -2.9736863614171480E-002
  -2.4973873906431545E-002
  -2.0167516577334569E-002
  -1.6402555722586799E-002
  -1.3077472969984721E-002
  -9.6750695733618351E-003
  -4.1596703249789759E-003
   2.1232939512253843E-004
   5.7605299929335625E-004
   9.3688829151271510E-004
   1.4366543432507899E-003
   2.2051499008426366E-003
   3.2837941945512536E-003
   3.2949334781897893E-003
   2.5652992304066214E-003
  -4.3299716224772300E-002
  -4.3031179606699256E-002
  -3.5072398992255685E-002
  -2.7362663469046287E-002
  -2.1842096737001930E-002
  -1.7501739405178605E-002
  -1.3178109908172303E-002
  -9.2850971137942665E-003
  -5.4321308621935139E-004
   2.7396344821735175E-004
   5.8576145957376518E-004
   8.8003900242609621E-004
   1.1706292267287274E-003
   1.5382212027310424E-003
   2.0777962149329979E-003
   2.6317373080702615E-003
   3.1952521474511125E-003
   3.7722824463050433E-003
   4.7651245666459046E-003
   4.3989842210692340E-003
   3.3150679795497778E-003
  -2.2725035543035607E-002
  -2.2616819458201518E-002
  -1.4962729101071826E-002
  -1.1452134578027078E-003
   4.3419529729453010E-004
   8.9552777735189869E-004
   1.2778565301299039E-003
   1.6273644426429252E-003
   1.9556921544675253E-003
   2.3515589937525795E-003
   2.8492124353038679E-003
   3.3031379048866880E-003
   3.7482511348173723E-003
   4.1638485723710225E-003
   4.5575304484951912E-003
   4.9701204030978153E-003
   5.4412835987497120E-003
   5.9822017733106502E-003
   6.9623183435490194E-003
   5.8746003388167713E-003
   4.1779263115711259E-003
   1.0779890215434731E-003
   1.3401862105868120E-003
   2.5580438955639011E-003
   3.2050181739481228E-003
   3.5593908568834244E-003
   4.0282374296223260E-003
   4.3428950984892665E-003
   4.6093448612820435E-003
   4.8423384136093922E-003
   5.0232764347613009E-003
   5.1702982312122753E-003
   5.3207117342397390E-003
   5.4856490262506236E-003
   5.6707309594442841E-003
   5.8832414000151807E-003
   6.1317759526440113E-003
   6.4312825306793685E-003
   6.8008389281640092E-003
   7.4015750074786623E-003
   7.2888225504631208E-003
   5.5484199700045539E-003
   1.6921946398992032E-003
   2.2553969858428403E-003
   4.2827387478263819E-003
   6.1886608110987285E-003
   6.4430752988207229E-003
   6.4426533399354361E-003
   6.3356848444992234E-003
   6.1879867613222868E-003
   6.0429256243559543E-003
   5.9180238075240334E-003
   5.8224253579671230E-003
   5.7611153976577347E-003
   5.7347134402750966E-003
   5.7431607374277072E-003
   5.7881576640535833E-003
   5.8735219938507634E-003
   6.0050088958784990E-003
   6.1939846676389212E-003
   6.4894473397436071E-003
   6.8157413223486184E-003
   6.9180234765116849E-003
 -0.14882019420785497     
 -0.14807812295813028     
 -0.14785776792557237     
 -0.14775169591665069     
 -0.14763189687856099     
 -0.14751066635101309     
 -0.14739339166770718     
 -0.14726838057731617     
 -0.14713756468570557     
 -0.14698803336078151     
 -0.14682296546686716     
 -0.14663373390456216     
 -0.14638492620028440     
 -0.14607765816169652     
 -0.14567722427594582     
 -0.14514196663120127     
 -0.14442504195922118     
 -0.14341705108502978     
 -0.14238427303820406     
 -0.13909461371267615     
 -0.13835455690189086     
 -0.14746235026529467     
 -0.14710540796589380     
 -0.14597100624774370     
 -0.14610824910556383     
 -0.14599583373524044     
 -0.14590116251260613     
 -0.14579260075651643     
 -0.14566760892308361     
 -0.14552969900886031     
 -0.14536691841516003     
 -0.14516665719515648     
 -0.14491782695360872     
 -0.14459697257602425     
 -0.14418748369488316     
 -0.14364905623400617     
 -0.14293920283887773     
 -0.14199699898489748     
 -0.14073273128903929     
 -0.13923665926510156     
 -0.13580880339406590     
 -0.13577281365532537     
 -0.14658757449849172     
 -0.14583693322980865     
 -0.14432687763925545     
 -0.14438030897445281     
 -0.14404752002154331     
 -0.14375153012885772     
 -0.14344286181080709     
 -0.14311146568431762     
 -0.14275159586634728     
 -0.14234425280503249     
 -0.14187982404952867     
 -0.14133147863452314     
 -0.14067207837031526     
 -0.13986741796240609     
 -0.13887151278328760     
 -0.13762606132020944     
 -0.13605820287409418     
 -0.13407798985384833     
 -0.13174271288476455     
 -0.12756422293962957     
 -0.12699771683989325     
 -0.14579153297235939     
 -0.14544254004415119     
 -0.14370989076466570     
 -0.14357155367282040     
 -0.14303570728181381     
 -0.14251909930116935     
 -0.14197568863130125     
 -0.14138660849531642     
 -0.14074313549633163     
 -0.14002603527172505     
 -0.13921200326178568     
 -0.13827216257003816     
 -0.13717277344470299     
 -0.13586385726663386     
 -0.13429131190098170     
 -0.13239092218560211     
 -0.13009994978755474     
 -0.12737547640018848     
 -0.12426531762854028     
 -0.11950871362079533     
 -0.11918644532357198     
 -0.14476710088096303     
 -0.14457645643789904     
 -0.14249523019387994     
 -0.14207523786066209     
 -0.14127609559656454     
 -0.14047460957374763     
 -0.13962308329601694     
 -0.13870924046032079     
 -0.13771547087654790     
 -0.13661740685643542     
 -0.13538637200366335     
 -0.13398487273683979     
 -0.13237087662329525     
 -0.13049444019603293     
 -0.12831688234403896     
 -0.12580407771911897     
 -0.12289909600616375     
 -0.11953758424346711     
 -0.11570996839767507     
 -0.11035168005402134     
 -0.11002880172053200     
 -0.14344799470833855     
 -0.14335631288869896     
 -0.14092203672148421     
 -0.14014082493905117     
 -0.13900128487625016     
 -0.13783496197547426     
 -0.13660211114737592     
 -0.13528400172999608     
 -0.13385726622065180     
 -0.13229374922568174     
 -0.13056257291715859     
 -0.12863491407061486     
 -0.12648693727284038     
 -0.12407906601832930     
 -0.12135541880538026     
 -0.11825886092791500     
 -0.11472635897417603     
 -0.11068068341523810     
 -0.10604427177320376     
  -9.9777338135480245E-002
  -9.9390054702280642E-002
 -0.14169853488672554     
 -0.14164278061216903     
 -0.13882461329928147     
 -0.13759174735049789     
 -0.13603606585416861     
 -0.13442962456293936     
 -0.13273446088034696     
 -0.13092963846515510     
 -0.12900091862831159     
 -0.12693793701035119     
 -0.12471997037759136     
 -0.12230698389246455     
 -0.11965238398457544     
 -0.11670558387575375     
 -0.11340687043171732     
 -0.10968497960784808     
 -0.10542880954509325     
 -0.10041748107757152     
  -9.4710503068408558E-002
  -8.7780019689871022E-002
  -8.7334091150765472E-002
 -0.13935047379549692     
 -0.13930357290804726     
 -0.13604870544599795     
 -0.13427419893799208     
 -0.13221357846999671     
 -0.13008240425091819     
 -0.12786554941154718     
 -0.12556694703401650     
 -0.12316567336239304     
 -0.12062834772807664     
 -0.11791856115147427     
 -0.11499230185245013     
 -0.11179622671924040     
 -0.10826337799981843     
 -0.10427338465993251     
  -9.9651550101521769E-002
  -9.4487723197005546E-002
  -8.8779046101393255E-002
  -8.2508708755127336E-002
  -7.4700639005568767E-002
  -7.4179109437361751E-002
 -0.13619516361411838     
 -0.13616885411535595     
 -0.13239145979116507     
 -0.12998521203140204     
 -0.12736707742964609     
 -0.12471833859048367     
 -0.12201024344045189     
 -0.11921936814932223     
 -0.11631728848213456     
 -0.11326799889853613     
 -0.11002476207948672     
 -0.10651946041307449     
 -0.10261727426574735     
  -9.8245908292758491E-002
  -9.3497555001270216E-002
  -8.8331790902941257E-002
  -8.2723551287911645E-002
  -7.6214921473885880E-002
  -6.8949025084503374E-002
  -6.0745687050116876E-002
  -6.0227557500414385E-002
 -0.13197923613869436     
 -0.13199333901886662     
 -0.12765696806630317     
 -0.12463487898080038     
 -0.12148027116489407     
 -0.11829426472940542     
 -0.11505116674325443     
 -0.11172145773709123     
 -0.10826434545155585     
 -0.10459609302705396     
 -0.10059133580784002     
  -9.6324976230448306E-002
  -9.1813686747360054E-002
  -8.7029521835827961E-002
  -8.1921212394893930E-002
  -7.6050667239425981E-002
  -6.9629560748433808E-002
  -6.2684420627305948E-002
  -5.5335570533791151E-002
  -4.6892307935777609E-002
  -4.6403727408849627E-002
 -0.12659748836977092     
 -0.12662444229642972     
 -0.12179227026400179     
 -0.11812466697051230     
 -0.11437290464584447     
 -0.11059135505041200     
 -0.10673453150813565     
 -0.10269006965335685     
  -9.8430354600021350E-002
  -9.4075592584917156E-002
  -8.9601191397170932E-002
  -8.5006136947125763E-002
  -8.0134212747602879E-002
  -7.4685615873255770E-002
  -6.8925782624441656E-002
  -6.2791069794423268E-002
  -5.6351672420979722E-002
  -4.9341630748915628E-002
  -4.1502327130390287E-002
  -3.2930165448641052E-002
  -3.2482079985581065E-002
 -0.11999083936224032     
 -0.11993127111066980     
 -0.11457268580407494     
 -0.11018744799768121     
 -0.10572511727283296     
 -0.10109158959198906     
  -9.6403104312576482E-002
  -9.1735571200395036E-002
  -8.7094280763820142E-002
  -8.2450161562828320E-002
  -7.7459889527819376E-002
  -7.2271152118132634E-002
  -6.6939378837920893E-002
  -6.1400093803066477E-002
  -5.5752000551108044E-002
  -4.9669589245561974E-002
  -4.2972855725419860E-002
  -3.5763704675222920E-002
  -2.8183011684722512E-002
  -1.9625982578028389E-002
  -1.9236319205586171E-002
 -0.11182471637339425     
 -0.11163356815816983     
 -0.10562557603147615     
 -0.10020927442000122     
  -9.4844320865004050E-002
  -8.9620576139768357E-002
  -8.4570349810891343E-002
  -7.9499392184131004E-002
  -7.4249422894826403E-002
  -6.9064249463507532E-002
  -6.3874487412139039E-002
  -5.8724007510833579E-002
  -5.3662497012569824E-002
  -4.8105572611481968E-002
  -4.2300277274710599E-002
  -3.6186745570933668E-002
  -2.9922385295369423E-002
  -2.2918792395108443E-002
  -1.5334456285139277E-002
  -6.9991679245910180E-003
  -6.7542902806725647E-003
 -0.10138612579576989     
 -0.10107909538097773     
  -9.4212374762985066E-002
  -8.8137061372022429E-002
  -8.2367906950372230E-002
  -7.6511830163392414E-002
  -7.0820546764577427E-002
  -6.5334995017244810E-002
  -6.0070629408574133E-002
  -5.5099672731592164E-002
  -5.0060616844362325E-002
  -4.4892462098157275E-002
  -3.9656589119906584E-002
  -3.4372377229411374E-002
  -2.9107308019641547E-002
  -2.3343243121590536E-002
  -1.7212618669733757E-002
  -1.0617538224761009E-002
  -3.3840085732435949E-003
   6.0181706084611588E-003
   6.0213684297794742E-003
  -8.8577730274374086E-002
  -8.8204882697241097E-002
  -8.0976122398931066E-002