# vtk DataFile Version 2.0
3D Unstructured Grid of Linear Triangles
ASCII
DATASET UNSTRUCTURED_GRID
FIELD FieldData  1
TIME 1 1 double
        3607.59715
POINTS     7056 float
      0.00000000E+00  1.00000000E+01  1.00000000E+00
      5.00000000E-01  1.00000000E+01  9.93333333E-01
      1.00000000E+00  1.00000000E+01  9.83333333E-01
      1.50000000E+00  1.00000000E+01  9.73333333E-01
      2.00000000E+00  1.00000000E+01  9.63333333E-01
      2.50000000E+00  1.00000000E+01  9.53333333E-01
      3.00000000E+00  1.00000000E+01  9.43333333E-01
      3.50000000E+00  1.00000000E+01  9.33333333E-01
      4.00000000E+00  1.00000000E+01  9.23333333E-01
      4.50000000E+00  1.00000000E+01  9.13333333E-01
      5.00000000E+00  1.00000000E+01  9.03333333E-01
      5.50000000E+00  1.00000000E+01  8.93333333E-01
      6.00000000E+00  1.00000000E+01  8.83333333E-01
      6.50000000E+00  1.00000000E+01  8.73333333E-01
      7.00000000E+00  1.00000000E+01  8.63333333E-01
      7.50000000E+00  1.00000000E+01  8.53333333E-01
      8.00000000E+00  1.00000000E+01  8.43333333E-01
      8.50000000E+00  1.00000000E+01  8.33333333E-01
      9.00000000E+00  1.00000000E+01  8.23333333E-01
      9.50000000E+00  1.00000000E+01  8.13333333E-01
      1.00000000E+01  1.00000000E+01  8.10000000E-01
      0.00000000E+00  9.50000000E+00  9.83333333E-01
      5.00000000E-01  9.50000000E+00  9.82500000E-01
      1.00000000E+00  9.50000000E+00  9.72500000E-01
      1.50000000E+00  9.50000000E+00  9.62500000E-01
      2.00000000E+00  9.50000000E+00  9.52500000E-01
      2.50000000E+00  9.50000000E+00  9.42500000E-01
      3.00000000E+00  9.50000000E+00  9.32500000E-01
      3.50000000E+00  9.50000000E+00  9.22500000E-01
      4.00000000E+00  9.50000000E+00  9.12500000E-01
      4.50000000E+00  9.50000000E+00  9.02500000E-01
      5.00000000E+00  9.50000000E+00  8.92500000E-01
      5.50000000E+00  9.50000000E+00  8.82500000E-01
      6.00000000E+00  9.50000000E+00  8.72500000E-01
      6.50000000E+00  9.50000000E+00  8.62500000E-01
      7.00000000E+00  9.50000000E+00  8.52500000E-01
      7.50000000E+00  9.50000000E+00  8.42500000E-01
      8.00000000E+00  9.50000000E+00  8.32500000E-01
      8.50000000E+00  9.50000000E+00  8.22500000E-01
      9.00000000E+00  9.50000000E+00  8.12500000E-01
      9.50000000E+00  9.50000000E+00  8.02500000E-01
      1.00000000E+01  9.50000000E+00  8.01666667E-01
      0.00000000E+00  9.00000000E+00  9.58333333E-01
      5.00000000E-01  9.00000000E+00  9.57500000E-01
      1.00000000E+00  9.00000000E+00  9.47500000E-01
      1.50000000E+00  9.00000000E+00  9.37500000E-01
      2.00000000E+00  9.00000000E+00  9.27500000E-01
      2.50000000E+00  9.00000000E+00  9.17500000E-01
      3.00000000E+00  9.00000000E+00  9.07500000E-01
      3.50000000E+00  9.00000000E+00  8.97500000E-01
      4.00000000E+00  9.00000000E+00  8.87500000E-01
      4.50000000E+00  9.00000000E+00  8.77500000E-01
      5.00000000E+00  9.00000000E+00  8.67500000E-01
      5.50000000E+00  9.00000000E+00  8.57500000E-01
      6.00000000E+00  9.00000000E+00  8.47500000E-01
      6.50000000E+00  9.00000000E+00  8.37500000E-01
      7.00000000E+00  9.00000000E+00  8.27500000E-01
      7.50000000E+00  9.00000000E+00  8.17500000E-01
      8.00000000E+00  9.00000000E+00  8.07500000E-01
      8.50000000E+00  9.00000000E+00  7.97500000E-01
      9.00000000E+00  9.00000000E+00  7.87500000E-01
      9.50000000E+00  9.00000000E+00  7.77500000E-01
      1.00000000E+01  9.00000000E+00  7.76666667E-01
      0.00000000E+00  8.50000000E+00  9.33333333E-01
      5.00000000E-01  8.50000000E+00  9.32500000E-01
      1.00000000E+00  8.50000000E+00  9.22500000E-01
      1.50000000E+00  8.50000000E+00  9.12500000E-01
      2.00000000E+00  8.50000000E+00  9.02500000E-01
      2.50000000E+00  8.50000000E+00  8.92500000E-01
      3.00000000E+00  8.50000000E+00  8.82500000E-01
      3.50000000E+00  8.50000000E+00  8.72500000E-01
      4.00000000E+00  8.50000000E+00  8.62500000E-01
      4.50000000E+00  8.50000000E+00  8.52500000E-01
      5.00000000E+00  8.50000000E+00  8.42500000E-01
      5.50000000E+00  8.50000000E+00  8.32500000E-01
      6.00000000E+00  8.50000000E+00  8.22500000E-01
      6.50000000E+00  8.50000000E+00  8.12500000E-01
      7.00000000E+00  8.50000000E+00  8.02500000E-01
      7.50000000E+00  8.50000000E+00  7.92500000E-01
      8.00000000E+00  8.50000000E+00  7.82500000E-01
      8.50000000E+00  8.50000000E+00  7.72500000E-01
      9.00000000E+00  8.50000000E+00  7.62500000E-01
      9.50000000E+00  8.50000000E+00  7.52500000E-01
      1.00000000E+01  8.50000000E+00  7.51666667E-01
      0.00000000E+00  8.00000000E+00  9.08333333E-01
      5.00000000E-01  8.00000000E+00  9.07500000E-01
      1.00000000E+00  8.00000000E+00  8.97500000E-01
      1.50000000E+00  8.00000000E+00  8.87500000E-01
      2.00000000E+00  8.00000000E+00  8.77500000E-01
      2.50000000E+00  8.00000000E+00  8.67500000E-01
      3.00000000E+00  8.00000000E+00  8.57500000E-01
      3.50000000E+00  8.00000000E+00  8.47500000E-01
      4.00000000E+00  8.00000000E+00  8.37500000E-01
      4.50000000E+00  8.00000000E+00  8.27500000E-01
      5.00000000E+00  8.00000000E+00  8.17500000E-01
      5.50000000E+00  8.00000000E+00  8.07500000E-01
      6.00000000E+00  8.00000000E+00  7.97500000E-01
      6.50000000E+00  8.00000000E+00  7.87500000E-01
      7.00000000E+00  8.00000000E+00  7.77500000E-01
      7.50000000E+00  8.00000000E+00  7.67500000E-01
      8.00000000E+00  8.00000000E+00  7.57500000E-01
      8.50000000E+00  8.00000000E+00  7.47500000E-01
      9.00000000E+00  8.00000000E+00  7.37500000E-01
      9.50000000E+00  8.00000000E+00  7.27500000E-01
      1.00000000E+01  8.00000000E+00  7.26666667E-01
      0.00000000E+00  7.50000000E+00  8.83333333E-01
      5.00000000E-01  7.50000000E+00  8.82500000E-01
      1.00000000E+00  7.50000000E+00  8.72500000E-01
      1.50000000E+00  7.50000000E+00  8.62500000E-01
      2.00000000E+00  7.50000000E+00  8.52500000E-01
      2.50000000E+00  7.50000000E+00  8.42500000E-01
      3.00000000E+00  7.50000000E+00  8.32500000E-01
      3.50000000E+00  7.50000000E+00  8.22500000E-01
      4.00000000E+00  7.50000000E+00  8.12500000E-01
      4.50000000E+00  7.50000000E+00  8.02500000E-01
      5.00000000E+00  7.50000000E+00  7.92500000E-01
      5.50000000E+00  7.50000000E+00  7.82500000E-01
      6.00000000E+00  7.50000000E+00  7.72500000E-01
      6.50000000E+00  7.50000000E+00  7.62500000E-01
      7.00000000E+00  7.50000000E+00  7.52500000E-01
      7.50000000E+00  7.50000000E+00  7.42500000E-01
      8.00000000E+00  7.50000000E+00  7.32500000E-01
      8.50000000E+00  7.50000000E+00  7.22500000E-01
      9.00000000E+00  7.50000000E+00  7.12500000E-01
      9.50000000E+00  7.50000000E+00  7.02500000E-01
      1.00000000E+01  7.50000000E+00  7.01666667E-01
      0.00000000E+00  7.00000000E+00  8.58333333E-01
      5.00000000E-01  7.00000000E+00  8.57500000E-01
      1.00000000E+00  7.00000000E+00  8.47500000E-01
      1.50000000E+00  7.00000000E+00  8.37500000E-01
      2.00000000E+00  7.00000000E+00  8.27500000E-01
      2.50000000E+00  7.00000000E+00  8.17500000E-01
      3.00000000E+00  7.00000000E+00  8.07500000E-01
      3.50000000E+00  7.00000000E+00  7.97500000E-01
      4.00000000E+00  7.00000000E+00  7.87500000E-01
      4.50000000E+00  7.00000000E+00  7.77500000E-01
      5.00000000E+00  7.00000000E+00  7.67500000E-01
      5.50000000E+00  7.00000000E+00  7.57500000E-01
      6.00000000E+00  7.00000000E+00  7.47500000E-01
      6.50000000E+00  7.00000000E+00  7.37500000E-01
      7.00000000E+00  7.00000000E+00  7.27500000E-01
      7.50000000E+00  7.00000000E+00  7.17500000E-01
      8.00000000E+00  7.00000000E+00  7.07500000E-01
      8.50000000E+00  7.00000000E+00  6.97500000E-01
      9.00000000E+00  7.00000000E+00  6.87500000E-01
      9.50000000E+00  7.00000000E+00  6.77500000E-01
      1.00000000E+01  7.00000000E+00  6.76666667E-01
      0.00000000E+00  6.50000000E+00  8.33333333E-01
      5.00000000E-01  6.50000000E+00  8.32500000E-01
      1.00000000E+00  6.50000000E+00  8.22500000E-01
      1.50000000E+00  6.50000000E+00  8.12500000E-01
      2.00000000E+00  6.50000000E+00  8.02500000E-01
      2.50000000E+00  6.50000000E+00  7.92500000E-01
      3.00000000E+00  6.50000000E+00  7.82500000E-01
      3.50000000E+00  6.50000000E+00  7.72500000E-01
      4.00000000E+00  6.50000000E+00  7.62500000E-01
      4.50000000E+00  6.50000000E+00  7.52500000E-01
      5.00000000E+00  6.50000000E+00  7.42500000E-01
      5.50000000E+00  6.50000000E+00  7.32500000E-01
      6.00000000E+00  6.50000000E+00  7.22500000E-01
      6.50000000E+00  6.50000000E+00  7.12500000E-01
      7.00000000E+00  6.50000000E+00  7.02500000E-01
      7.50000000E+00  6.50000000E+00  6.92500000E-01
      8.00000000E+00  6.50000000E+00  6.82500000E-01
      8.50000000E+00  6.50000000E+00  6.72500000E-01
      9.00000000E+00  6.50000000E+00  6.62500000E-01
      9.50000000E+00  6.50000000E+00  6.52500000E-01
      1.00000000E+01  6.50000000E+00  6.51666667E-01
      0.00000000E+00  6.00000000E+00  8.08333333E-01
      5.00000000E-01  6.00000000E+00  8.07500000E-01
      1.00000000E+00  6.00000000E+00  7.97500000E-01
      1.50000000E+00  6.00000000E+00  7.87500000E-01
      2.00000000E+00  6.00000000E+00  7.77500000E-01
      2.50000000E+00  6.00000000E+00  7.67500000E-01
      3.00000000E+00  6.00000000E+00  7.57500000E-01
      3.50000000E+00  6.00000000E+00  7.47500000E-01
      4.00000000E+00  6.00000000E+00  7.37500000E-01
      4.50000000E+00  6.00000000E+00  7.27500000E-01
      5.00000000E+00  6.00000000E+00  7.17500000E-01
      5.50000000E+00  6.00000000E+00  7.07500000E-01
      6.00000000E+00  6.00000000E+00  6.97500000E-01
      6.50000000E+00  6.00000000E+00  6.87500000E-01
      7.00000000E+00  6.00000000E+00  6.77500000E-01
      7.50000000E+00  6.00000000E+00  6.67500000E-01
      8.00000000E+00  6.00000000E+00  6.57500000E-01
[...]
POINT_DATA     7056
SCALARS pressure float
LOOKUP_TABLE default
 -0.17762157765297462     
 -0.17668824364578295     
 -0.17648063853663457     
 -0.17638183661526380     
 -0.17626306579410142     
 -0.17616510247864550     
 -0.17606756352110353     
 -0.17595005483860993     
 -0.17584081901371756     
 -0.17570933326932647     
 -0.17556619113365768     
 -0.17539342858314261     
 -0.17517380680125105     
 -0.17490749762192687     
 -0.17455497764030836     
 -0.17408616939684110     
 -0.17345697093080606     
 -0.17257026737706924     
 -0.17172919271158293     
 -0.16872226452193589     
 -0.16815481615650574     
 -0.17600411744939459     
 -0.17539052533694463     
 -0.17431721434602138     
 -0.17454439558911372     
 -0.17449951862952912     
 -0.17445543094136420     
 -0.17439618841369797     
 -0.17432248693986255     
 -0.17423346684353569     
 -0.17411209995947471     
 -0.17396351258259002     
 -0.17376514576601368     
 -0.17350675037963700     
 -0.17316226185284225     
 -0.17269567620820495     
 -0.17207058914147505     
 -0.17123226525556023     
 -0.17009868547168722     
 -0.16881016274971020     
 -0.16571192217342404     
 -0.16558495966433531     
 -0.17524748637633336     
 -0.17434964069959671     
 -0.17290961843833696     
 -0.17310042914036039     
 -0.17282754165355191     
 -0.17260127025700314     
 -0.17235970718899254     
 -0.17210329143575351     
 -0.17181380431543683     
 -0.17148366802763870     
 -0.17109510355869670     
 -0.17062791826599696     
 -0.17005405660325967     
 -0.16934236596714156     
 -0.16844642214640410     
 -0.16731778211169740     
 -0.16590402470142773     
 -0.16413448317697882     
 -0.16212493822442564     
 -0.15827499955694393     
 -0.15728813675299419     
 -0.17463855211420826     
 -0.17422489038837174     
 -0.17256788421810298     
 -0.17261702402761062     
 -0.17218675835918418     
 -0.17179229838522395     
 -0.17136301007402344     
 -0.17089274848925909     
 -0.17036106727512521     
 -0.16975360186452521     
 -0.16904350867193435     
 -0.16820534230299392     
 -0.16720300374654484     
 -0.16600055726415627     
 -0.16455389844147295     
 -0.16281454070041451     
 -0.16072307196261879     
 -0.15821601751515227     
 -0.15536215273240761     
 -0.15069907709579958     
 -0.14994429868410686     
 -0.17382288199897081     
 -0.17361885097126328     
 -0.17163924100789882     
 -0.17145392228253564     
 -0.17081993171942697     
 -0.17018974054274918     
 -0.16949919779577524     
 -0.16873196476061883     
 -0.16787162285209450     
 -0.16689568534929522     
 -0.16577510717140889     
 -0.16448277396820254     
 -0.16298088587555309     
 -0.16122603849965716     
 -0.15916967963130565     
 -0.15675630021835152     
 -0.15392519222798917     
 -0.15060704801139299     
 -0.14682873748573977     
 -0.14141246972017871     
 -0.14083552139181116     
 -0.17277865193094105     
 -0.17270627372884409     
 -0.17040852063686943     
 -0.16991869387042599     
 -0.16899237720696988     
 -0.16802945184881904     
 -0.16697786165338044     
 -0.16581847522603987     
 -0.16453368391105680     
 -0.16309740155806732     
 -0.16147953374195628     
 -0.15964467450779243     
 -0.15755025056747865     
 -0.15514798165718857     
 -0.15238099399127325     
 -0.14918822942048438     
 -0.14552774112965786     
 -0.14141552641149815     
 -0.13687380029560384     
 -0.13089421117205111     
 -0.13039082794424062     
 -0.17135731132910745     
 -0.17133195687452552     
 -0.16868184494600674     
 -0.16777651565310694     
 -0.16645903082894312     
 -0.16506987874275450     
 -0.16356586900569217     
 -0.16192733706031923     
 -0.16012943127653020     
 -0.15814383754732869     
 -0.15593512523860834     
 -0.15346111979032076     
 -0.15067320457839431     
 -0.14752111453069197     
 -0.14399384951221056     
 -0.14009458443067571     
 -0.13577983996746243     
 -0.13100511810087676     
 -0.12574861827484438     
 -0.11921622872161790     
 -0.11870099095805131     
 -0.16936131087883971     
 -0.16929885711492570     
 -0.16623959188095322     
 -0.16480943075894020     
 -0.16300571120742416     
 -0.16109887434818757     
 -0.15904866609714957     
 -0.15683286687330880     
 -0.15442368211053303     
 -0.15178680188563973     
 -0.14888191168624021     
 -0.14568325598457846     
 -0.14220528433457283     
 -0.13842632866265794     
 -0.13430391514519815     
 -0.12979719946818230     
 -0.12485604328313400     
 -0.11943442784342310     
 -0.11342727711702762     
 -0.10597971152313999     
 -0.10539163056291957     
 -0.16653258836721871     
 -0.16636229558006196     
 -0.16283786933044681     
 -0.16077905178883667     
 -0.15838201382646699     
 -0.15584858142327551     
 -0.15314355688923212     
 -0.15024044617486382     
 -0.14711417092459586     
 -0.14377695972153851     
 -0.14024000085780045     
 -0.13647067120167602     
 -0.13243548108279454     
 -0.12809516159691067     
 -0.12340358997466434     
 -0.11832068989749880     
 -0.11269564021450308     
 -0.10630567059274233     
  -9.9349612701767703E-002
  -9.1499609588024805E-002
  -9.0914750348000062E-002
 -0.16256932288211987     
 -0.16225920686381304     
 -0.15818880627472467     
 -0.15537578428021398     
 -0.15225947992105895     
 -0.14897490889074982     
 -0.14551789697099363     
 -0.14193076139610775     
 -0.13820656833946471     
 -0.13431921633011085     
 -0.13024283331330869     
 -0.12594121650956436     
 -0.12138111353658365     
 -0.11651364333178274     
 -0.11113131603256041     
 -0.10518662077424923     
  -9.8790104081745406E-002
  -9.1964877452798202E-002
  -8.4488007616415520E-002
  -7.5949834811661732E-002
  -7.5311644193710989E-002
 -0.15708323280448827     
 -0.15665810810202474     
 -0.15190975125056760     
 -0.14820497550519088     
 -0.14428944890343851     
 -0.14031127115774339     
 -0.13625397822964827     
 -0.13210257392428518     
 -0.12783484819733093     
 -0.12342401144561077     
 -0.11885116132977779     
 -0.11401898402521614     
 -0.10871844422799103     
 -0.10309262279178484     
  -9.7146361594458733E-002
  -9.0910903777511334E-002
  -8.4093882238022694E-002
  -7.6635178566490880E-002
  -6.8636015145959101E-002
  -6.0140701619903057E-002
  -5.9640687548689869E-002
 -0.14956931825608266     
 -0.14911786279097922     
 -0.14363549290914945     
 -0.13915134010582517     
 -0.13458996595115311     
 -0.13000255089819812     
 -0.12537113770568678     
 -0.12068963505121615     
 -0.11591431122003037     
 -0.11085369037721814     
 -0.10554003401938369     
 -0.10006305755592131     
  -9.4428203094236357E-002
  -8.8637825537775133E-002
  -8.2274481751402895E-002
  -7.5544273679264348E-002
  -6.8415581298042066E-002
  -6.1007761850327656E-002
  -5.2931752326424199E-002
  -4.4124764149382226E-002
  -4.3610481752271772E-002
 -0.13996688128715723     
 -0.13952977491261115     
 -0.13348425001085981     
 -0.12828449024400329     
 -0.12308965399525855     
 -0.11793419916312978     
 -0.11268639244357619     
 -0.10722518362368756     
 -0.10174084303628421     
  -9.6246155437588840E-002
  -9.0756367893471426E-002
  -8.5033408182209877E-002
  -7.9025613240067266E-002
  -7.2835459786453435E-002
  -6.6440705667149144E-002
  -5.9961825333063747E-002
  -5.2857510273244514E-002
  -4.5277489739171520E-002
  -3.7290662423240285E-002
  -2.8790370723391794E-002
  -2.8475962598557607E-002
 -0.12840542179261591     
 -0.12791873787111474     
 -0.12133632359051864     
 -0.11545046694322737     
 -0.10940942139256812     
 -0.10341451886286891     
  -9.7559199758268350E-002
  -9.1863251011961022E-002
  -8.6184756743987387E-002
  -8.0335240412516065E-002
  -7.4494523129305948E-002
  -6.8640873146917220E-002
  -6.2803141602059423E-002
  -5.6902675258131967E-002
  -5.0621744031316501E-002
  -4.4097475174410726E-002
  -3.7318268544257772E-002
  -3.0028500846044678E-002
  -2.2078251973860461E-002
  -1.4362006463028551E-002
  -1.4420104403894967E-002
 -0.11466045312463086     
 -0.11412938940699881     
 -0.10666211869866291     
  -9.9838806934664806E-002
  -9.3337030890789388E-002
  -8.7112746096092444E-002
  -8.0842567695907239E-002
  -7.4777615319017970E-002
  -6.8903481636995986E-002
  -6.3221776004741020E-002
  -5.7713437170356811E-002
  -5.2040241858197521E-002
  -4.6339943226607734E-002
  -4.0600505315844700E-002
  -3.4767794669826865E-002
  -2.8759341135656237E-002
  -2.2403027938738586E-002
  -1.5157344530249479E-002
  -5.3531215423881376E-003
  -2.0766210534214967E-003
  -2.9081174491489732E-003
  -9.7834231609228647E-002
  -9.7330661106286118E-002
  -8.9644787748854135E-002
  -8.2279850032708754E-002
  -7.5238595127491814E-002
  -6.8636218602733098E-002
  -6.2536952978139299E-002
  -5.6800475077586489E-002
  -5.1126584861052690E-002
  -4.5620196343745319E-002
  -4.0287494240636157E-002
  -3.5152522198287572E-002
  -2.9971421413142321E-002
  -2.4668761249984367E-002
  -1.8902176510952832E-002
  -1.3919063173857717E-002
  -8.5756594431703956E-003
   4.7402149109166162E-004
   2.5837280723413620E-003
   2.2400911225407675E-003
   9.7170779500578618E-004
  -7.8882405145145246E-002
  -7.8372329244408831E-002
  -7.0133830579244646E-002
  -6.2712381886251167E-002
  -5.5769005486218493E-002
  -4.9092040008949067E-002
  -4.3210853986939447E-002
  -3.7912087795873670E-002
  -3.2901278049904510E-002
  -2.7954594441230118E-002
  -2.2953904787724813E-002
  -1.8224230547365518E-002
  -1.3973317033080749E-002
  -9.3109403786083081E-003
   1.3796551305885881E-004
   1.2262853549779070E-003
   2.4744518441158986E-003
   3.7264498616748328E-003
   6.6642481169653794E-003
   6.2931277718501540E-003
   3.4993144273694236E-003
  -5.7981722457753473E-002
  -5.7500451205168661E-002
  -4.9171327331320167E-002
  -4.1764682097259004E-002
  -3.5016023545851087E-002
  -2.7974209661718156E-002
  -2.2918302204195763E-002
  -1.8678165254081908E-002
  -1.4739679810807623E-002
  -1.0725829782952077E-002
  -5.1002454039785683E-003
   5.3328406588818811E-004
   1.5130383216846693E-003
   2.4621217515685637E-003
   3.5063722475290027E-003
   4.9321469314115825E-003
   6.8158415505925251E-003
   8.3766878492521086E-003
   1.0836844796661693E-002
   9.3165455616923531E-003
   5.7445100415350970E-003
  -3.5307817383637655E-002
  -3.4670701439965895E-002
  -2.6454632193587079E-002
  -1.9405112100792456E-002
  -1.3301492958466131E-002
   5.5568180487463226E-005
   1.2085431666877065E-003
   2.3182832179714486E-003
   3.3003218543020477E-003
   4.2515318944619006E-003
   5.1514840033245199E-003
   6.2065545230355961E-003
   7.6474876303548045E-003
   9.0800925547654381E-003
   1.0453987771157561E-002
   1.1660155254764286E-002
   1.2838089479554551E-002
   1.3906504542246985E-002
   1.5867568026870088E-002
   1.2499673653770953E-002
   7.6721706580365505E-003
  -1.1231638089793921E-002
  -8.4848636141965621E-003
   9.3788314275088070E-004
   2.3472190237593393E-003
   3.5225090057061851E-003
   4.5173784275976056E-003
   5.6391115363698648E-003
   6.8635952121808503E-003
   7.8402408579136638E-003
   8.7581058632404275E-003
   9.6227982206018355E-003
   1.0359817420846891E-002
   1.0982642210932076E-002
   1.1599153626531406E-002
   1.2251065498713545E-002
   1.2911423112119612E-002
   1.3593139129804983E-002
   1.4289603632932874E-002
   1.5342739693265989E-002
   1.4654898612626196E-002
   1.0222545113521612E-002
  -3.7717702097820535E-003
   2.1654918474920434E-005
   1.4675288098647047E-003
   4.2711874466505526E-003
   6.4511620692784622E-003
   8.1973591266949353E-003
   9.0101609671953634E-003
   9.2724597697013689E-003
   9.3740203931267571E-003
   9.4197866367655148E-003
   9.4581083427146134E-003
   9.5177881939318768E-003
   9.6143841855843692E-003
   9.7552921213114596E-003
   9.9453757513725954E-003
   1.0192959297358185E-002
   1.0514441364035017E-002
   1.0934166355123776E-002
   1.1538837931478783E-002
   1.2237352431608450E-002
   1.2556134481394384E-002
 -0.17178011913834798     
 -0.17089200277789693     
 -0.17068437332356237     
 -0.17058504836692326     
 -0.17046583326293416     
 -0.17036749438337784     
 -0.17026965181531389     
 -0.17015191284018213     
 -0.17004244514739630     
 -0.16991074201605746     
 -0.16976733785581699     
 -0.16959425518068477     
 -0.16937424328040712     
 -0.16910741220604189     
 -0.16875425954859719     
 -0.16828468750894252     
 -0.16765456576710253     
 -0.16676694750355925     
 -0.16592351788598872     
 -0.16291448146741902     
 -0.16244245984736760     
 -0.17021461860415385     
 -0.16968670706293074     
 -0.16861469377107008     
 -0.16884238422289133     
 -0.16879810594280215     
 -0.16875450106689938     
 -0.16869564144925170     
 -0.16862218837430812     
 -0.16853325992269266     
 -0.16841183800851908     
 -0.16826300779015690     
 -0.16806424098917935     
 -0.16780526821530928     
 -0.16746003592290304     
 -0.16699253675743056     
 -0.16636631023619869     
 -0.16552654657261484     
 -0.16439122510153578     
 -0.16309939733284073     
 -0.15999912231812169     
 -0.15996340848318552     
 -0.16945988207251306     
 -0.16865318675956903     
 -0.16721431395958664     
 -0.16740535830133157     
 -0.16713267585342811     
 -0.16690631868969399     
 -0.16666457838522966     
 -0.16640784935930084     
 -0.16611793320742815     
 -0.16578723952765900     
 -0.16539799767494356     
 -0.16492999988326423     
 -0.16435515996647065     
 -0.16364223978298068     
 -0.16274470449150785     
 -0.16161394245068703     
 -0.16019740395413001     
 -0.15842470263009684     
 -0.15641074831381241     
 -0.15255857183705199     
 -0.15165944850485077     
 -0.16885042929096702     
 -0.16853007754212379     
 -0.16687327839837610     
 -0.16692271813440032     
 -0.16649248392814586     
 -0.16609773036331804     
 -0.16566804538290497     
 -0.16519723509541112     
 -0.16466487573044938     
 -0.16405656428161861     
 -0.16334541354776341     
 -0.16250585807674447     
 -0.16150165348521131     
 -0.16029670356061151     
 -0.15884694268806523     
 -0.15710403971904802     
 -0.15500855356720888     
 -0.15249710224752783     
 -0.14963767959926624     
 -0.14497117417511768     
 -0.14429734845482534     
 -0.16803445699923916     
 -0.16792475173189603     
 -0.16594455052738571     
 -0.16575932892863912     
 -0.16512511127798676     
 -0.16449442468188616     
 -0.16380326788715621     
 -0.16303522837255319     
 -0.16217378544338190     
 -0.16119630817375710     
 -0.16007360645125002     
 -0.15877849573186356     
 -0.15727331778311932     
 -0.15551465128717329     
 -0.15345390156389549     
 -0.15103563416601234     
 -0.14819919694723258     
 -0.14487531088899544     
 -0.14108837402447877     
 -0.13566153510113402     
 -0.13515937374559858     
 -0.16698959681774539     
 -0.16701180125730439     
 -0.16471308929385833     
 -0.16422304215071398     
 -0.16329628585187939     
 -0.16233256814806624     
 -0.16127982841515001     
 -0.16011875061830508     
 -0.15883160572292496     
 -0.15739239499000646     
 -0.15577107956778022     
 -0.15393215846726266     
 -0.15183307297694587     
 -0.14942560280591038     
 -0.14665295278172127     
 -0.14345372694491149     
 -0.13978336168642341     
 -0.13565819104654492     
 -0.13110235855255506     
 -0.12511148955314877     
 -0.12467617172768822     
 -0.16556698324099994     
 -0.16563618576255359     
 -0.16298492870560385     
 -0.16207883063461181     
 -0.16076023432305137     
 -0.15936923035331560     
 -0.15786272251491107     
 -0.15622117297692389     
 -0.15441965863722223     
 -0.15242980701338604     
 -0.15021623536972342     
 -0.14773681988123555     
 -0.14494295570314725     
 -0.14178329176716020     
 -0.13824444155163587     
 -0.13433224709898078     
 -0.13000398388587514     
 -0.12521495782174422     
 -0.11994292321085147     
 -0.11339865149435445     
 -0.11294194389485927     
 -0.16356882508896722     
 -0.16360057685424850     
 -0.16053933625815894     
 -0.15910704949094429     
 -0.15730083121586941     
 -0.15539086682386224     
 -0.15333689373935430     
 -0.15111668118647473     
 -0.14870248326328595     
 -0.14606005064638833     
 -0.14314870524324003     
 -0.13994061364052612     
 -0.13645029776685427     
 -0.13265850383675654     
 -0.12852260333690738     
 -0.12400182423865573     
 -0.11904598633527846     
 -0.11360888177445969     
 -0.10759054050261378     
 -0.10013439281583870     
  -9.9597921909446829E-002
 -0.16073604152405666     
 -0.16065829570412477     
 -0.15713050415734528     
 -0.15506825206055125     
 -0.15266736680522844     
 -0.15012936391944684     
 -0.14741919042336665     
 -0.14451032323033774     
 -0.14137645307387123     
 -0.13802788766487309     
 -0.13447855094687788     
 -0.13069640784011960     
 -0.12664781326174568     
 -0.12229369841314412     
 -0.11758762551206781     
 -0.11249015713903741     
 -0.10685615274655871     
 -0.10045133097464193     
  -9.3477310869286040E-002
  -8.5613352957542563E-002
  -8.5065985408449118E-002
 -0.15676618511525614     
 -0.15654482671949360     
 -0.15247038922329151     
 -0.14965243206522627     
 -0.14653089317978679     
 -0.14324009010555497     
 -0.13977351545453318     
 -0.13617422917844538     
 -0.13243758089072619     
 -0.12853728127368561     
 -0.12444765058628986     
 -0.12013242229365929     
 -0.11555790710591235     
 -0.11067753891538493     
 -0.10528773076876317     
  -9.9327138754494129E-002
  -9.2913882425440020E-002
  -8.6070220945674306E-002
  -7.8582592308424140E-002
  -7.0034189108819533E-002
  -6.9424773752855246E-002
 -0.15127053192490628     
 -0.15092849389490742     
 -0.14617598158519293     
 -0.14246390103120718     
 -0.13853699282925441     
 -0.13454632672639155     
 -0.13047627708223478     
 -0.12631176355281076     
 -0.12203076439729947     
 -0.11760609944329456     
 -0.11301964235906439     
 -0.10817790937939914     
 -0.10286700432074436     
  -9.7226211879939364E-002
  -9.1263833524271809E-002
  -8.5011440482501963E-002
  -7.8184857544065581E-002
  -7.0711220684860146E-002
  -6.2697694282375760E-002
  -5.4191626702887671E-002
  -5.3709442095028787E-002
 -0.14374326803992493     
 -0.14336777473337159     
 -0.13787477045214322     
 -0.13337728140933494     
 -0.12880262564036041     
 -0.12420178598301973     
 -0.11955673489439407     
 -0.11486115300504375     
 -0.11007430229551282     
 -0.10500662188464220     
  -9.9678704703652254E-002
  -9.4187184635709173E-002
  -8.8536976943381890E-002
  -8.2733432388519032E-002
  -7.6360421620578128E-002
  -6.9617211689838851E-002
  -6.2475422225834208E-002
  -5.5053291914131074E-002
  -4.6969031455421952E-002
  -3.8156693373953068E-002
  -3.7652653745271214E-002
 -0.13411510408262783     
 -0.13374424091015855     
 -0.12768701760894549     
 -0.12247305841520535     
 -0.11726365574323967     
 -0.11209484134889248     
 -0.10683988909420934     
 -0.10136601656135902     
  -9.5867574615976031E-002
  -9.0358144841394386E-002
  -8.4853748311747093E-002
  -7.9123484304162564E-002
  -7.3103733592816980E-002
  -6.6902390624703489E-002
  -6.0496281398847544E-002
  -5.4005442340551546E-002
  -4.6894103416917091E-002
  -3.9306017029173169E-002
  -3.1311970888162968E-002
  -2.2809017196318664E-002
  -2.2499084221097445E-002
 -0.12252628978163042     
 -0.12209430021092380     
 -0.11549890623934368     
 -0.10960111577944874     
 -0.10355112326480997     
  -9.7542020022416312E-002
  -9.1671808605342700E-002
  -8.5961370099080073E-002
  -8.0275612217284908E-002
  -7.4414471145755418E-002
  -6.8562992383826335E-002
  -6.2698759456521411E-002
  -5.6850601578628548E-002
  -5.0943657335149446E-002
  -4.4655249433018150E-002
  -3.8124272025832073E-002
  -3.1338824876131960E-002
  -2.4043451642970736E-002
  -1.6091848480851920E-002
  -8.3769446577575991E-003
  -8.4353555430545478E-003
 -0.10875536889148636     
 -0.10826912377667886     
 -0.10079092483009672     