# vtk DataFile Version 2.0
3D Unstructured Grid of Linear Triangles
ASCII
DATASET UNSTRUCTURED_GRID
FIELD FieldData  1
TIME 1 1 double
        2000.00000
POINTS     7056 float
          0.0000E+00      1.0000E+01      1.0000E+00
          5.0000E-01      1.0000E+01      9.9333E-01
          1.0000E+00      1.0000E+01      9.8333E-01
          1.5000E+00      1.0000E+01      9.7333E-01
          2.0000E+00      1.0000E+01      9.6333E-01
          2.5000E+00      1.0000E+01      9.5333E-01
          3.0000E+00      1.0000E+01      9.4333E-01
          3.5000E+00      1.0000E+01      9.3333E-01
          4.0000E+00      1.0000E+01      9.2333E-01
          4.5000E+00      1.0000E+01      9.1333E-01
          5.0000E+00      1.0000E+01      9.0333E-01
          5.5000E+00      1.0000E+01      8.9333E-01
          6.0000E+00      1.0000E+01      8.8333E-01
          6.5000E+00      1.0000E+01      8.7333E-01
          7.0000E+00      1.0000E+01      8.6333E-01
          7.5000E+00      1.0000E+01      8.5333E-01
          8.0000E+00      1.0000E+01      8.4333E-01
          8.5000E+00      1.0000E+01      8.3333E-01
          9.0000E+00      1.0000E+01      8.2333E-01
          9.5000E+00      1.0000E+01      8.1333E-01
          1.0000E+01      1.0000E+01      8.1000E-01
          0.0000E+00      9.5000E+00      9.8333E-01
          5.0000E-01      9.5000E+00      9.8250E-01
          1.0000E+00      9.5000E+00      9.7250E-01
          1.5000E+00      9.5000E+00      9.6250E-01
          2.0000E+00      9.5000E+00      9.5250E-01
          2.5000E+00      9.5000E+00      9.4250E-01
          3.0000E+00      9.5000E+00      9.3250E-01
          3.5000E+00      9.5000E+00      9.2250E-01
          4.0000E+00      9.5000E+00      9.1250E-01
          4.5000E+00      9.5000E+00      9.0250E-01
          5.0000E+00      9.5000E+00      8.9250E-01
          5.5000E+00      9.5000E+00      8.8250E-01
          6.0000E+00      9.5000E+00      8.7250E-01
          6.5000E+00      9.5000E+00      8.6250E-01
          7.0000E+00      9.5000E+00      8.5250E-01
          7.5000E+00      9.5000E+00      8.4250E-01
          8.0000E+00      9.5000E+00      8.3250E-01
          8.5000E+00      9.5000E+00      8.2250E-01
          9.0000E+00      9.5000E+00      8.1250E-01
          9.5000E+00      9.5000E+00      8.0250E-01
          1.0000E+01      9.5000E+00      8.0167E-01
          0.0000E+00      9.0000E+00      9.5833E-01
          5.0000E-01      9.0000E+00      9.5750E-01
          1.0000E+00      9.0000E+00      9.4750E-01
          1.5000E+00      9.0000E+00      9.3750E-01
          2.0000E+00      9.0000E+00      9.2750E-01
          2.5000E+00      9.0000E+00      9.1750E-01
          3.0000E+00      9.0000E+00      9.0750E-01
          3.5000E+00      9.0000E+00      8.9750E-01
          4.0000E+00      9.0000E+00      8.8750E-01
          4.5000E+00      9.0000E+00      8.7750E-01
          5.0000E+00      9.0000E+00      8.6750E-01
          5.5000E+00      9.0000E+00      8.5750E-01
          6.0000E+00      9.0000E+00      8.4750E-01
          6.5000E+00      9.0000E+00      8.3750E-01
          7.0000E+00      9.0000E+00      8.2750E-01
          7.5000E+00      9.0000E+00      8.1750E-01
          8.0000E+00      9.0000E+00      8.0750E-01
          8.5000E+00      9.0000E+00      7.9750E-01
          9.0000E+00      9.0000E+00      7.8750E-01
          9.5000E+00      9.0000E+00      7.7750E-01
          1.0000E+01      9.0000E+00      7.7667E-01
          0.0000E+00      8.5000E+00      9.3333E-01
          5.0000E-01      8.5000E+00      9.3250E-01
          1.0000E+00      8.5000E+00      9.2250E-01
          1.5000E+00      8.5000E+00      9.1250E-01
          2.0000E+00      8.5000E+00      9.0250E-01
          2.5000E+00      8.5000E+00      8.9250E-01
          3.0000E+00      8.5000E+00      8.8250E-01
          3.5000E+00      8.5000E+00      8.7250E-01
          4.0000E+00      8.5000E+00      8.6250E-01
          4.5000E+00      8.5000E+00      8.5250E-01
          5.0000E+00      8.5000E+00      8.4250E-01
          5.5000E+00      8.5000E+00      8.3250E-01
          6.0000E+00      8.5000E+00      8.2250E-01
          6.5000E+00      8.5000E+00      8.1250E-01
          7.0000E+00      8.5000E+00      8.0250E-01
          7.5000E+00      8.5000E+00      7.9250E-01
          8.0000E+00      8.5000E+00      7.8250E-01
          8.5000E+00      8.5000E+00      7.7250E-01
          9.0000E+00      8.5000E+00      7.6250E-01
          9.5000E+00      8.5000E+00      7.5250E-01
          1.0000E+01      8.5000E+00      7.5167E-01
          0.0000E+00      8.0000E+00      9.0833E-01
          5.0000E-01      8.0000E+00      9.0750E-01
          1.0000E+00      8.0000E+00      8.9750E-01
          1.5000E+00      8.0000E+00      8.8750E-01
          2.0000E+00      8.0000E+00      8.7750E-01
          2.5000E+00      8.0000E+00      8.6750E-01
          3.0000E+00      8.0000E+00      8.5750E-01
          3.5000E+00      8.0000E+00      8.4750E-01
          4.0000E+00      8.0000E+00      8.3750E-01
          4.5000E+00      8.0000E+00      8.2750E-01
          5.0000E+00      8.0000E+00      8.1750E-01
          5.5000E+00      8.0000E+00      8.0750E-01
          6.0000E+00      8.0000E+00      7.9750E-01
          6.5000E+00      8.0000E+00      7.8750E-01
          7.0000E+00      8.0000E+00      7.7750E-01
          7.5000E+00      8.0000E+00      7.6750E-01
          8.0000E+00      8.0000E+00      7.5750E-01
          8.5000E+00      8.0000E+00      7.4750E-01
          9.0000E+00      8.0000E+00      7.3750E-01
          9.5000E+00      8.0000E+00      7.2750E-01
          1.0000E+01      8.0000E+00      7.2667E-01
          0.0000E+00      7.5000E+00      8.8333E-01
          5.0000E-01      7.5000E+00      8.8250E-01
          1.0000E+00      7.5000E+00      8.7250E-01
          1.5000E+00      7.5000E+00      8.6250E-01
          2.0000E+00      7.5000E+00      8.5250E-01
          2.5000E+00      7.5000E+00      8.4250E-01
          3.0000E+00      7.5000E+00      8.3250E-01
          3.5000E+00      7.5000E+00      8.2250E-01
          4.0000E+00      7.5000E+00      8.1250E-01
          4.5000E+00      7.5000E+00      8.0250E-01
          5.0000E+00      7.5000E+00      7.9250E-01
          5.5000E+00      7.5000E+00      7.8250E-01
          6.0000E+00      7.5000E+00      7.7250E-01
          6.5000E+00      7.5000E+00      7.6250E-01
          7.0000E+00      7.5000E+00      7.5250E-01
          7.5000E+00      7.5000E+00      7.4250E-01
          8.0000E+00      7.5000E+00      7.3250E-01
          8.5000E+00      7.5000E+00      7.2250E-01
          9.0000E+00      7.5000E+00      7.1250E-01
          9.5000E+00      7.5000E+00      7.0250E-01
          1.0000E+01      7.5000E+00      7.0167E-01
          0.0000E+00      7.0000E+00      8.5833E-01
          5.0000E-01      7.0000E+00      8.5750E-01
          1.0000E+00      7.0000E+00      8.4750E-01
          1.5000E+00      7.0000E+00      8.3750E-01
          2.0000E+00      7.0000E+00      8.2750E-01
          2.5000E+00      7.0000E+00      8.1750E-01
          3.0000E+00      7.0000E+00      8.0750E-01
          3.5000E+00      7.0000E+00      7.9750E-01
          4.0000E+00      7.0000E+00      7.8750E-01
          4.5000E+00      7.0000E+00      7.7750E-01
          5.0000E+00      7.0000E+00      7.6750E-01
          5.5000E+00      7.0000E+00      7.5750E-01
          6.0000E+00      7.0000E+00      7.4750E-01
          6.5000E+00      7.0000E+00      7.3750E-01
          7.0000E+00      7.0000E+00      7.2750E-01
          7.5000E+00      7.0000E+00      7.1750E-01
          8.0000E+00      7.0000E+00      7.0750E-01
          8.5000E+00      7.0000E+00      6.9750E-01
          9.0000E+00      7.0000E+00      6.8750E-01
          9.5000E+00      7.0000E+00      6.7750E-01
          1.0000E+01      7.0000E+00      6.7667E-01
          0.0000E+00      6.5000E+00      8.3333E-01
          5.0000E-01      6.5000E+00      8.3250E-01
          1.0000E+00      6.5000E+00      8.2250E-01
          1.5000E+00      6.5000E+00      8.1250E-01
          2.0000E+00      6.5000E+00      8.0250E-01
          2.5000E+00      6.5000E+00      7.9250E-01
          3.0000E+00      6.5000E+00      7.8250E-01
          3.5000E+00      6.5000E+00      7.7250E-01
          4.0000E+00      6.5000E+00      7.6250E-01
          4.5000E+00      6.5000E+00      7.5250E-01
          5.0000E+00      6.5000E+00      7.4250E-01
          5.5000E+00      6.5000E+00      7.3250E-01
          6.0000E+00      6.5000E+00      7.2250E-01
          6.5000E+00      6.5000E+00      7.1250E-01
          7.0000E+00      6.5000E+00      7.0250E-01
          7.5000E+00      6.5000E+00      6.9250E-01
          8.0000E+00      6.5000E+00      6.8250E-01
          8.5000E+00      6.5000E+00      6.7250E-01
          9.0000E+00      6.5000E+00      6.6250E-01
          9.5000E+00      6.5000E+00      6.5250E-01
          1.0000E+01      6.5000E+00      6.5167E-01
          0.0000E+00      6.0000E+00      8.0833E-01
          5.0000E-01      6.0000E+00      8.0750E-01
          1.0000E+00      6.0000E+00      7.9750E-01
          1.5000E+00      6.0000E+00      7.8750E-01
          2.0000E+00      6.0000E+00      7.7750E-01
          2.5000E+00      6.0000E+00      7.6750E-01
          3.0000E+00      6.0000E+00      7.5750E-01
          3.5000E+00      6.0000E+00      7.4750E-01
          4.0000E+00      6.0000E+00      7.3750E-01
          4.5000E+00      6.0000E+00      7.2750E-01
          5.0000E+00      6.0000E+00      7.1750E-01
          5.5000E+00      6.0000E+00      7.0750E-01
          6.0000E+00      6.0000E+00      6.9750E-01
          6.5000E+00      6.0000E+00      6.8750E-01
          7.0000E+00      6.0000E+00      6.7750E-01
          7.5000E+00      6.0000E+00      6.6750E-01
          8.0000E+00      6.0000E+00      6.5750E-01
[...]
POINT_DATA     7056
SCALARS saturation float
LOOKUP_TABLE default
       0.6832025
       0.6848858
       0.6856944
       0.6862426
       0.6867314
       0.6871613
       0.6875658
       0.6879405
       0.6883007
       0.6886703
       0.6890505
       0.6894670
       0.6899477
       0.6905291
       0.6912748
       0.6922540
       0.6936017
       0.6955339
       0.6981070
       0.7043605
       0.7064101
       0.6864513
       0.6868258
       0.6888347
       0.6892205
       0.6897608
       0.6902717
       0.6907532
       0.6912197
       0.6916881
       0.6921676
       0.6926790
       0.6932584
       0.6939299
       0.6947475
       0.6957933
       0.6971545
       0.6989857
       0.7015463
       0.7051676
       0.7128375
       0.7130396
       0.6896294
       0.6903790
       0.6935138
       0.6944477
       0.6956025
       0.6966643
       0.6976761
       0.6986546
       0.6996304
       0.7006205
       0.7016752
       0.7028271
       0.7041432
       0.7057129
       0.7076668
       0.7102047
       0.7136552
       0.7185641
       0.7255675
       0.7370314
       0.7378642
       0.6927017
       0.6929347
       0.6969193
       0.6985972
       0.7004518
       0.7021883
       0.7038468
       0.7054550
       0.7070574
       0.7087092
       0.7104791
       0.7124514
       0.7147559
       0.7175687
       0.7211351
       0.7257096
       0.7314976
       0.7389579
       0.7487330
       0.7633248
       0.7641136
       0.6963036
       0.6962665
       0.7012725
       0.7038325
       0.7064820
       0.7089995
       0.7114593
       0.7139213
       0.7164525
       0.7191359
       0.7220737
       0.7253524
       0.7290341
       0.7332672
       0.7383026
       0.7444618
       0.7521525
       0.7621098
       0.7770395
       0.7987009
       0.7997228
       0.7004566
       0.7002552
       0.7062676
       0.7098406
       0.7135212
       0.7171683
       0.7208571
       0.7246163
       0.7284107
       0.7322438
       0.7362284
       0.7405124
       0.7452836
       0.7507779
       0.7573193
       0.7656447
       0.7774877
       0.7926169
       0.8119144
       0.8365610
       0.8371964
       0.7051702
       0.7048936
       0.7120443
       0.7170036
       0.7221865
       0.7273553
       0.7323261
       0.7371255
       0.7418576
       0.7466576
       0.7516882
       0.7571429
       0.7634033
       0.7714502
       0.7814750
       0.7934079
       0.8079677
       0.8257845
       0.8487978
       0.8819694
       0.8831082
       0.7106244
       0.7103742
       0.7190737
       0.7258872
       0.7325596
       0.7388476
       0.7448559
       0.7507226
       0.7566012
       0.7627473
       0.7698352
       0.7781246
       0.7872093
       0.7973853
       0.8091217
       0.8229177
       0.8390594
       0.8623060
       0.8916398
       0.9272851
       0.9276941
       0.7173521
       0.7171676
       0.7277754
       0.7360786
       0.7439530
       0.7514639
       0.7588071
       0.7664201
       0.7750603
       0.7839860
       0.7931356
       0.8027057
       0.8130567
       0.8245443
       0.8373321
       0.8547258
       0.8762119
       0.9024228
       0.9336419
       0.9711326
       0.9713627
       0.7258668
       0.7257134
       0.7377081
       0.7474416
       0.7568086
       0.7662792
       0.7768590
       0.7873576
       0.7975762
       0.8076524
       0.8179166
       0.8285057
       0.8398019
       0.8544657
       0.8712814
       0.8908207
       0.9133244
       0.9409404
       0.9739434
       1.0000000
       1.0000000
       0.7356921
       0.7356487
       0.7490985
       0.7606985
       0.7733303
       0.7863440
       0.7987363
       0.8104905
       0.8218548
       0.8328217
       0.8447037
       0.8583470
       0.8729739
       0.8889980
       0.9066376
       0.9259103
       0.9491313
       0.9754220
       1.0000000
       1.0000000
       1.0000000
       0.7471330
       0.7474052
       0.7628761
       0.7788289
       0.7945214
       0.8092276
       0.8229851
       0.8356571
       0.8494229
       0.8636583
       0.8780093
       0.8927273
       0.9078754
       0.9235450
       0.9418768
       0.9615678
       0.9807402
       1.0000000
       1.0000000
       1.0000000
       1.0000000
       0.7614977
       0.7619936
       0.7824198
       0.8013939
       0.8190406
       0.8349694
       0.8515347
       0.8679603
       0.8837386
       0.8989258
       0.9134529
       0.9281467
       0.9435754
       0.9595278
       0.9757083
       0.9918109
       1.0000000
       1.0000000
       1.0000000
       1.0000000
       1.0000000
       0.7829052
       0.7834554
       0.8068896
       0.8281563
       0.8483124
       0.8686458
       0.8877064
       0.9052074
       0.9206060
       0.9360464
       0.9509135
       0.9660703
       0.9776822
       0.9885846
       1.0000000
       1.0000000
       1.0000000
       1.0000000
       1.0000000
       1.0000000
       1.0000000
       0.8097494
       0.8105437
       0.8364861
       0.8624903
       0.8869453
       0.9088531
       0.9275647
       0.9454022
       0.9620948
       0.9742357
       0.9852075
       1.0000000
       1.0000000
       1.0000000
       1.0000000
       1.0000000
       1.0000000
       1.0000000
       1.0000000
       1.0000000
       1.0000000
       0.8438348
       0.8444709
       0.8775289
       0.9065409
       0.9313630
       0.9544252
       0.9706055
       0.9839341
       1.0000000
       1.0000000
       1.0000000
       1.0000000
       1.0000000
       1.0000000
       1.0000000
       1.0000000
       1.0000000
       1.0000000
       1.0000000
       1.0000000
       1.0000000
       0.8917850
       0.8925292
       0.9304023
       0.9574619
       0.9784429
       1.0000000
       1.0000000
       1.0000000
       1.0000000
       1.0000000
       1.0000000
       1.0000000
       1.0000000
       1.0000000
       1.0000000
       1.0000000
       1.0000000
       1.0000000
       1.0000000
       1.0000000
       1.0000000
       0.9505657
       0.9523238
       1.0000000
       1.0000000
       1.0000000
       1.0000000
       1.0000000
       1.0000000
       1.0000000
       1.0000000
       1.0000000
       1.0000000
       1.0000000
       1.0000000
       1.0000000
       1.0000000
       1.0000000
       1.0000000
       1.0000000
       1.0000000
       1.0000000
       1.0000000
       1.0000000
       1.0000000
       1.0000000
       1.0000000
       1.0000000
       1.0000000
       1.0000000
       1.0000000
       1.0000000
       1.0000000
       1.0000000
       1.0000000
       1.0000000
       1.0000000
       1.0000000
       1.0000000
       1.0000000
       1.0000000
       1.0000000
       1.0000000
       1.0000000
       1.0000000
       1.0000000
       1.0000000
       1.0000000
       1.0000000
       1.0000000
       1.0000000
       1.0000000
       1.0000000
       1.0000000
       1.0000000
       1.0000000
       1.0000000
       1.0000000
       1.0000000
       1.0000000
       1.0000000
       1.0000000
       1.0000000
       1.0000000
       1.0000000
       1.0000000
       1.0000000
       1.0000000
       1.0000000
       1.0000000
       1.0000000
       1.0000000
       1.0000000
       1.0000000
       1.0000000
       1.0000000
       1.0000000
       1.0000000
       1.0000000
       1.0000000
       1.0000000
       1.0000000
       1.0000000
       1.0000000
       1.0000000
       0.6929858
       0.6946529
       0.6955247
       0.6961156
       0.6966428
       0.6971065
       0.6975427
       0.6979471
       0.6983360
       0.6987350
       0.6991457
       0.6995957
       0.7001150
       0.7007433
       0.7015494
       0.7026087
       0.7040687
       0.7061662
       0.7089684
       0.7157320
       0.7176661
       0.6963240
       0.6964532
       0.6986126
       0.6990268
       0.6996072
       0.7001568
       0.7006753
       0.7011782
       0.7016835
       0.7022014
       0.7027542
       0.7033809
       0.7041082
       0.7049948
       0.7061307
       0.7076130
       0.7096104
       0.7123994
       0.7163398
       0.7246278
       0.7245710
       0.6997391
       0.7002608
       0.7036290
       0.7046329
       0.7058751
       0.7070193
       0.7081113
       0.7091693
       0.7102264
       0.7113016
       0.7124492
       0.7137044
       0.7151386
       0.7168483
       0.7189751
       0.7217349
       0.7254828
       0.7308135
       0.7384771
       0.7510221
       0.7516660
       0.7030442
       0.7030061
       0.7072903
       0.7090989
       0.7111016
       0.7129825
       0.7147834
       0.7165316
       0.7182737
       0.7200697
       0.7219937
       0.7241370
       0.7266405
       0.7296963
       0.7335788
       0.7385944
       0.7449593
       0.7531707
       0.7639502
       0.7799620
       0.7805750
       0.7069249
       0.7065948
       0.7119886
       0.7147623
       0.7176354
       0.7203661
       0.7230344
       0.7257053
       0.7284519
       0.7313666
       0.7345665
       0.7381594
       0.7422128
       0.7468753
       0.7524235
       0.7592177
       0.7677083
       0.7786779
       0.7951061
       0.8190658
       0.8199966
       0.7114155
       0.7109105
       0.7174084
       0.7212804
       0.7252662
       0.7292179
       0.7332218
       0.7373221
       0.7414926
       0.7457150
       0.7501081
       0.7548345
       0.7601017
       0.7661708
       0.7733920
       0.7825357
       0.7955977
       0.8123823
       0.8338167
       0.8611192
       0.8616881
       0.7165297
       0.7159492
       0.7236777
       0.7290470
       0.7346697
       0.7403230
       0.7457917
       0.7510802
       0.7562999
       0.7615976
       0.7671539
       0.7731775
       0.7800654
       0.7888891
       0.8000075
       0.8132550
       0.8294324
       0.8492343
       0.8746385
       0.9108323
       0.9119759
       0.7224481
       0.7219013
       0.7313066
       0.7387288
       0.7460576
       0.7529813
       0.7596048
       0.7660776
       0.7725660
       0.7793301
       0.7870867
       0.7962718
       0.8063626
       0.8176711
       0.8307190
       0.8460499
       0.8639176
       0.8894905
       0.9212649
       0.9581062
       0.9584786
       0.7297511
       0.7292813
       0.7408307
       0.7499541
       0.7586245
       0.7669042
       0.7749990
       0.7833477
       0.7928639
       0.8027698
       0.8129395
       0.8235824
       0.8350900
       0.8478587
       0.8620329
       0.8811778
       0.9046561
       0.9326905
       0.9643509
       0.9958161
       0.9959549
       0.7390597
       0.7386478
       0.7517814
       0.7624976
       0.7728185
       0.7832083
       0.7948685
       0.8065169
       0.8178774
       0.8290826
       0.8404922
       0.8522583
       0.8647291
       0.8808928
       0.8993015
       0.9203945
       0.9440387
       0.9712789
       0.9974250
       1.0000000
       1.0000000
       0.7498622
       0.7495997
       0.7643617
       0.7771323
       0.7909934
       0.8054116
       0.8191777
       0.8322430
       0.8448723
       0.8570495
       0.8701371
       0.8851606
       0.9011476
       0.9184509
       0.9371133
       0.9567661
       0.9787356
       0.9982069
       1.0000000
       1.0000000
       1.0000000
       0.7624577
       0.7625762
       0.7795639
       0.7971282
       0.8145238
       0.8308583
       0.8461384
       0.8601951
       0.8753488
       0.8909874
       0.9066184
       0.9224414
       0.9384060
       0.9544087
       0.9721468
       0.9890899
       1.0000000
       1.0000000
       1.0000000
       1.0000000
       1.0000000
       0.7782797
       0.7786711
       0.8011596
       0.8221931
       0.8417815
       0.8594519
       0.8776896
       0.8956947
       0.9128087
       0.9290242
       0.9441825
       0.9589899
       0.9737157
       0.9874905
       0.9983437
       1.0000000
       1.0000000
       1.0000000
       1.0000000
       1.0000000
       1.0000000
       0.8019100
       0.8023867
       0.8283375
       0.8519303
       0.8741661
       0.8964619
       0.9170834
       0.9356310
       0.9514668
       0.9666652
       0.9803055
       0.9924468
       0.9992074
       1.0000000
       1.0000000
       1.0000000
       1.0000000
       1.0000000
       1.0000000
       1.0000000
       1.0000000
       0.8316708
       0.8324645
       0.8611915
       0.8897700
       0.9162876
       0.9394438
       0.9584227
       0.9754019
       0.9895110
       0.9976026
       1.0000000
       1.0000000
       1.0000000
       1.0000000
       1.0000000
       1.0000000
       1.0000000
       1.0000000
       1.0000000
       1.0000000
       1.0000000
       0.8693865
       0.8700351
       0.9061774
       0.9370565
       0.9621781
       0.9833287
       0.9954905
       1.0000000
       1.0000000
       1.0000000
       1.0000000
       1.0000000
       1.0000000
       1.0000000
       1.0000000
       1.0000000
       1.0000000
       1.0000000
       1.0000000
       1.0000000
       1.0000000
       0.9215645
       0.9223717
       0.9612731
       0.9858501
       0.9994878
       1.0000000
       1.0000000
       1.0000000
       1.0000000
       1.0000000
       1.0000000
       1.0000000
       1.0000000
       1.0000000
       1.0000000
       1.0000000
       1.0000000
       1.0000000
       1.0000000
       1.0000000
       1.0000000
       0.9800447
       0.9815534
       1.0000000
       1.0000000
       1.0000000
       1.0000000
       1.0000000
       1.0000000
       1.0000000
       1.0000000
       1.0000000
       1.0000000
       1.0000000
       1.0000000
       1.0000000
       1.0000000
       1.0000000
       1.0000000
       1.0000000
       1.0000000
       1.0000000
       1.0000000
       1.0000000
       1.0000000
       1.0000000
       1.0000000
       1.0000000
       1.0000000
       1.0000000
       1.0000000
       1.0000000
       1.0000000
       1.0000000
       1.0000000
       1.0000000
       1.0000000
       1.0000000
       1.0000000
       1.0000000
       1.0000000
       1.0000000
       1.0000000
       1.0000000
       1.0000000
       1.0000000
       1.0000000
       1.0000000
       1.0000000
       1.0000000
       1.0000000
       1.0000000
       1.0000000
       1.0000000
       1.0000000
       1.0000000
       1.0000000
       1.0000000
       1.0000000
       1.0000000
       1.0000000
       1.0000000
       1.0000000
       1.0000000
       1.0000000
       1.0000000
       1.0000000
       1.0000000
       1.0000000
       1.0000000
       1.0000000
       1.0000000
       1.0000000
       1.0000000
       1.0000000
       1.0000000
       1.0000000
       1.0000000
       1.0000000
       1.0000000
       1.0000000
       1.0000000
       1.0000000
       1.0000000
       1.0000000
       0.7104013
       0.7119154
       0.7129539
       0.7136557
       0.7142826
       0.7148340
       0.7153521
       0.7158335
       0.7162982
       0.7167739
       0.7172660
       0.7178050
       0.7184272
       0.7191802
       0.7201458
       0.7214204
       0.7231927
       0.7257720
       0.7292948
       0.7372628
       0.7386445
       0.7138303
       0.7131999
       0.7156874
       0.7161678
       0.7168349
       0.7174716
       0.7180772
       0.7186677
       0.7192639
       0.7198778
       0.7205366
       0.7212862
       0.7221610
       0.7232352
       0.7246226
       0.7264585
       0.7289586
       0.7324151
       0.7372499
       0.7468992
       0.7460299
       0.7177909
       0.7175515
       0.7214030
       0.7225605
       0.7239876
       0.7253162
       0.7265952
       0.7278470
       0.7291122
       0.7304166
       0.7318251
       0.7333799
       0.7351565
       0.7372636
       0.7398677
       0.7432188
       0.7477191
       0.7540667
       0.7635455
       0.7789462
       0.7789830
       0.7216010
       0.7207063
       0.7256070
       0.7277153
       0.7300617
       0.7323061
       0.7344863
       0.7366175
       0.7387394
       0.7409231
       0.7432554
       0.7458419
       0.7488459
       0.7524986
       0.7571694
       0.7634362
       0.7715156
       0.7819152
       0.7955900
       0.8151227
       0.8152024
       0.7261006
       0.7248768
       0.7310988
       0.7344206
       0.7378668
       0.7411403
       0.7443306
       0.7475148
       0.7507837
       0.7542572
       0.7581142
       0.7625845
       0.7677754
       0.7737379
       0.7808079
       0.7894679
       0.8002686
       0.8139534
       0.8340187
       0.8637520
       0.8645365
       0.7314231
       0.7300148
       0.7376299
       0.7422519
       0.7469567
       0.7516148
       0.7563567
       0.7613260
       0.7666079
       0.7720202
       0.7776540
       0.7837123
       0.7904526
       0.7982022
       0.8073383
       0.8185149
       0.8346335
       0.8558399
       0.8827227
       0.9159510
       0.9164692
       0.7376177
       0.7361504
       0.7451594
       0.7514730
       0.7581018
       0.7650546
       0.7720150
       0.7787762
       0.7854570
       0.7922225
       0.7993095
       0.8069475
       0.8154642
       0.8260308
       0.8401590
       0.8569314
       0.8772805
       0.9018948
       0.9319292
       0.9709351
       0.9720300
       0.7447315
       0.7433449
       0.7542415
       0.7631797
       0.7724201
       0.7812258
       0.7896541
       0.7978760
       0.8060876
       0.8144726
       0.8236917
       0.8353070
       0.8481717
       0.8625101
       0.8789413
       0.8979966
       0.9195425
       0.9488110
       0.9808902
       1.0000000
       1.0000000
       0.7534341
       0.7522039
       0.7660376
       0.7775433
       0.7885188
       0.7989847
       0.8091469
       0.8192660
       0.8309198
       0.8435267
       0.8564751
       0.8699626
       0.8844029
       0.9002566
       0.9174424
       0.9395424
       0.9649866
       0.9902296
       1.0000000
       1.0000000
       1.0000000
       0.7649922
       0.7639328
       0.7801010
       0.7936201
       0.8065709
       0.8192014
       0.8335361
       0.8483068
       0.8627467
       0.8768921
       0.8911411
       0.9056696
       0.9204836
       0.9392353
       0.9594597
       0.9801375
       0.9974328
       1.0000000
       1.0000000
       1.0000000
       1.0000000
       0.7788231
       0.7780132
       0.7962375
       0.8121468
       0.8288613
       0.8470348
       0.8644571
       0.8808858
       0.8965920
       0.9115215
       0.9268112
       0.9440789
       0.9614177
       0.9784091
       0.9933638
       1.0000000
       1.0000000
       1.0000000
       1.0000000
       1.0000000
       1.0000000
       0.7948452
       0.7946103
       0.8153921
       0.8369037
       0.8587640
       0.8792622
       0.8982098
       0.9153346
       0.9329149
       0.9505655
       0.9670510
       0.9819872
       0.9942127
       1.0000000
       1.0000000
       1.0000000
       1.0000000
       1.0000000
       1.0000000
       1.0000000
       1.0000000
       0.8146662
       0.8148723
       0.8423259
       0.8686338
       0.8929611
       0.9145305
       0.9356782
       0.9556879
       0.9731485
       0.9874750
       0.9975227
       1.0000000
       1.0000000
       1.0000000
       1.0000000
       1.0000000
       1.0000000
       1.0000000
       1.0000000
       1.0000000
       1.0000000
       0.8440382
       0.8444285
       0.8765647
       0.9055809
       0.9317327
       0.9565830
       0.9772054
       0.9923850
       1.0000000
       1.0000000
       1.0000000
       1.0000000
       1.0000000
       1.0000000
       1.0000000
       1.0000000
       1.0000000