# vtk DataFile Version 2.0
3D Unstructured Grid of Linear Triangles
ASCII
DATASET UNSTRUCTURED_GRID
FIELD FieldData  1
TIME 1 1 double
        3605.43531
POINTS     7056 float
      0.00000000E+00  1.00000000E+01  1.00000000E+00
      5.00000000E-01  1.00000000E+01  9.93333333E-01
      1.00000000E+00  1.00000000E+01  9.83333333E-01
      1.50000000E+00  1.00000000E+01  9.73333333E-01
      2.00000000E+00  1.00000000E+01  9.63333333E-01
      2.50000000E+00  1.00000000E+01  9.53333333E-01
      3.00000000E+00  1.00000000E+01  9.43333333E-01
      3.50000000E+00  1.00000000E+01  9.33333333E-01
      4.00000000E+00  1.00000000E+01  9.23333333E-01
      4.50000000E+00  1.00000000E+01  9.13333333E-01
      5.00000000E+00  1.00000000E+01  9.03333333E-01
      5.50000000E+00  1.00000000E+01  8.93333333E-01
      6.00000000E+00  1.00000000E+01  8.83333333E-01
      6.50000000E+00  1.00000000E+01  8.73333333E-01
      7.00000000E+00  1.00000000E+01  8.63333333E-01
      7.50000000E+00  1.00000000E+01  8.53333333E-01
      8.00000000E+00  1.00000000E+01  8.43333333E-01
      8.50000000E+00  1.00000000E+01  8.33333333E-01
      9.00000000E+00  1.00000000E+01  8.23333333E-01
      9.50000000E+00  1.00000000E+01  8.13333333E-01
      1.00000000E+01  1.00000000E+01  8.10000000E-01
      0.00000000E+00  9.50000000E+00  9.83333333E-01
      5.00000000E-01  9.50000000E+00  9.82500000E-01
      1.00000000E+00  9.50000000E+00  9.72500000E-01
      1.50000000E+00  9.50000000E+00  9.62500000E-01
      2.00000000E+00  9.50000000E+00  9.52500000E-01
      2.50000000E+00  9.50000000E+00  9.42500000E-01
      3.00000000E+00  9.50000000E+00  9.32500000E-01
      3.50000000E+00  9.50000000E+00  9.22500000E-01
      4.00000000E+00  9.50000000E+00  9.12500000E-01
      4.50000000E+00  9.50000000E+00  9.02500000E-01
      5.00000000E+00  9.50000000E+00  8.92500000E-01
      5.50000000E+00  9.50000000E+00  8.82500000E-01
      6.00000000E+00  9.50000000E+00  8.72500000E-01
      6.50000000E+00  9.50000000E+00  8.62500000E-01
      7.00000000E+00  9.50000000E+00  8.52500000E-01
      7.50000000E+00  9.50000000E+00  8.42500000E-01
      8.00000000E+00  9.50000000E+00  8.32500000E-01
      8.50000000E+00  9.50000000E+00  8.22500000E-01
      9.00000000E+00  9.50000000E+00  8.12500000E-01
      9.50000000E+00  9.50000000E+00  8.02500000E-01
      1.00000000E+01  9.50000000E+00  8.01666667E-01
      0.00000000E+00  9.00000000E+00  9.58333333E-01
      5.00000000E-01  9.00000000E+00  9.57500000E-01
      1.00000000E+00  9.00000000E+00  9.47500000E-01
      1.50000000E+00  9.00000000E+00  9.37500000E-01
      2.00000000E+00  9.00000000E+00  9.27500000E-01
      2.50000000E+00  9.00000000E+00  9.17500000E-01
      3.00000000E+00  9.00000000E+00  9.07500000E-01
      3.50000000E+00  9.00000000E+00  8.97500000E-01
      4.00000000E+00  9.00000000E+00  8.87500000E-01
      4.50000000E+00  9.00000000E+00  8.77500000E-01
      5.00000000E+00  9.00000000E+00  8.67500000E-01
      5.50000000E+00  9.00000000E+00  8.57500000E-01
      6.00000000E+00  9.00000000E+00  8.47500000E-01
      6.50000000E+00  9.00000000E+00  8.37500000E-01
      7.00000000E+00  9.00000000E+00  8.27500000E-01
      7.50000000E+00  9.00000000E+00  8.17500000E-01
      8.00000000E+00  9.00000000E+00  8.07500000E-01
      8.50000000E+00  9.00000000E+00  7.97500000E-01
      9.00000000E+00  9.00000000E+00  7.87500000E-01
      9.50000000E+00  9.00000000E+00  7.77500000E-01
      1.00000000E+01  9.00000000E+00  7.76666667E-01
      0.00000000E+00  8.50000000E+00  9.33333333E-01
      5.00000000E-01  8.50000000E+00  9.32500000E-01
      1.00000000E+00  8.50000000E+00  9.22500000E-01
      1.50000000E+00  8.50000000E+00  9.12500000E-01
      2.00000000E+00  8.50000000E+00  9.02500000E-01
      2.50000000E+00  8.50000000E+00  8.92500000E-01
      3.00000000E+00  8.50000000E+00  8.82500000E-01
      3.50000000E+00  8.50000000E+00  8.72500000E-01
      4.00000000E+00  8.50000000E+00  8.62500000E-01
      4.50000000E+00  8.50000000E+00  8.52500000E-01
      5.00000000E+00  8.50000000E+00  8.42500000E-01
      5.50000000E+00  8.50000000E+00  8.32500000E-01
      6.00000000E+00  8.50000000E+00  8.22500000E-01
      6.50000000E+00  8.50000000E+00  8.12500000E-01
      7.00000000E+00  8.50000000E+00  8.02500000E-01
      7.50000000E+00  8.50000000E+00  7.92500000E-01
      8.00000000E+00  8.50000000E+00  7.82500000E-01
      8.50000000E+00  8.50000000E+00  7.72500000E-01
      9.00000000E+00  8.50000000E+00  7.62500000E-01
      9.50000000E+00  8.50000000E+00  7.52500000E-01
      1.00000000E+01  8.50000000E+00  7.51666667E-01
      0.00000000E+00  8.00000000E+00  9.08333333E-01
      5.00000000E-01  8.00000000E+00  9.07500000E-01
      1.00000000E+00  8.00000000E+00  8.97500000E-01
      1.50000000E+00  8.00000000E+00  8.87500000E-01
      2.00000000E+00  8.00000000E+00  8.77500000E-01
      2.50000000E+00  8.00000000E+00  8.67500000E-01
      3.00000000E+00  8.00000000E+00  8.57500000E-01
      3.50000000E+00  8.00000000E+00  8.47500000E-01
      4.00000000E+00  8.00000000E+00  8.37500000E-01
      4.50000000E+00  8.00000000E+00  8.27500000E-01
      5.00000000E+00  8.00000000E+00  8.17500000E-01
      5.50000000E+00  8.00000000E+00  8.07500000E-01
      6.00000000E+00  8.00000000E+00  7.97500000E-01
      6.50000000E+00  8.00000000E+00  7.87500000E-01
      7.00000000E+00  8.00000000E+00  7.77500000E-01
      7.50000000E+00  8.00000000E+00  7.67500000E-01
      8.00000000E+00  8.00000000E+00  7.57500000E-01
      8.50000000E+00  8.00000000E+00  7.47500000E-01
      9.00000000E+00  8.00000000E+00  7.37500000E-01
      9.50000000E+00  8.00000000E+00  7.27500000E-01
      1.00000000E+01  8.00000000E+00  7.26666667E-01
      0.00000000E+00  7.50000000E+00  8.83333333E-01
      5.00000000E-01  7.50000000E+00  8.82500000E-01
      1.00000000E+00  7.50000000E+00  8.72500000E-01
      1.50000000E+00  7.50000000E+00  8.62500000E-01
      2.00000000E+00  7.50000000E+00  8.52500000E-01
      2.50000000E+00  7.50000000E+00  8.42500000E-01
      3.00000000E+00  7.50000000E+00  8.32500000E-01
      3.50000000E+00  7.50000000E+00  8.22500000E-01
      4.00000000E+00  7.50000000E+00  8.12500000E-01
      4.50000000E+00  7.50000000E+00  8.02500000E-01
      5.00000000E+00  7.50000000E+00  7.92500000E-01
      5.50000000E+00  7.50000000E+00  7.82500000E-01
      6.00000000E+00  7.50000000E+00  7.72500000E-01
      6.50000000E+00  7.50000000E+00  7.62500000E-01
      7.00000000E+00  7.50000000E+00  7.52500000E-01
      7.50000000E+00  7.50000000E+00  7.42500000E-01
      8.00000000E+00  7.50000000E+00  7.32500000E-01
      8.50000000E+00  7.50000000E+00  7.22500000E-01
      9.00000000E+00  7.50000000E+00  7.12500000E-01
      9.50000000E+00  7.50000000E+00  7.02500000E-01
      1.00000000E+01  7.50000000E+00  7.01666667E-01
      0.00000000E+00  7.00000000E+00  8.58333333E-01
      5.00000000E-01  7.00000000E+00  8.57500000E-01
      1.00000000E+00  7.00000000E+00  8.47500000E-01
      1.50000000E+00  7.00000000E+00  8.37500000E-01
      2.00000000E+00  7.00000000E+00  8.27500000E-01
      2.50000000E+00  7.00000000E+00  8.17500000E-01
      3.00000000E+00  7.00000000E+00  8.07500000E-01
      3.50000000E+00  7.00000000E+00  7.97500000E-01
      4.00000000E+00  7.00000000E+00  7.87500000E-01
      4.50000000E+00  7.00000000E+00  7.77500000E-01
      5.00000000E+00  7.00000000E+00  7.67500000E-01
      5.50000000E+00  7.00000000E+00  7.57500000E-01
      6.00000000E+00  7.00000000E+00  7.47500000E-01
      6.50000000E+00  7.00000000E+00  7.37500000E-01
      7.00000000E+00  7.00000000E+00  7.27500000E-01
      7.50000000E+00  7.00000000E+00  7.17500000E-01
      8.00000000E+00  7.00000000E+00  7.07500000E-01
      8.50000000E+00  7.00000000E+00  6.97500000E-01
      9.00000000E+00  7.00000000E+00  6.87500000E-01
      9.50000000E+00  7.00000000E+00  6.77500000E-01
      1.00000000E+01  7.00000000E+00  6.76666667E-01
      0.00000000E+00  6.50000000E+00  8.33333333E-01
      5.00000000E-01  6.50000000E+00  8.32500000E-01
      1.00000000E+00  6.50000000E+00  8.22500000E-01
      1.50000000E+00  6.50000000E+00  8.12500000E-01
      2.00000000E+00  6.50000000E+00  8.02500000E-01
      2.50000000E+00  6.50000000E+00  7.92500000E-01
      3.00000000E+00  6.50000000E+00  7.82500000E-01
      3.50000000E+00  6.50000000E+00  7.72500000E-01
      4.00000000E+00  6.50000000E+00  7.62500000E-01
      4.50000000E+00  6.50000000E+00  7.52500000E-01
      5.00000000E+00  6.50000000E+00  7.42500000E-01
      5.50000000E+00  6.50000000E+00  7.32500000E-01
      6.00000000E+00  6.50000000E+00  7.22500000E-01
      6.50000000E+00  6.50000000E+00  7.12500000E-01
      7.00000000E+00  6.50000000E+00  7.02500000E-01
      7.50000000E+00  6.50000000E+00  6.92500000E-01
      8.00000000E+00  6.50000000E+00  6.82500000E-01
      8.50000000E+00  6.50000000E+00  6.72500000E-01
      9.00000000E+00  6.50000000E+00  6.62500000E-01
      9.50000000E+00  6.50000000E+00  6.52500000E-01
      1.00000000E+01  6.50000000E+00  6.51666667E-01
      0.00000000E+00  6.00000000E+00  8.08333333E-01
      5.00000000E-01  6.00000000E+00  8.07500000E-01
      1.00000000E+00  6.00000000E+00  7.97500000E-01
      1.50000000E+00  6.00000000E+00  7.87500000E-01
      2.00000000E+00  6.00000000E+00  7.77500000E-01
      2.50000000E+00  6.00000000E+00  7.67500000E-01
      3.00000000E+00  6.00000000E+00  7.57500000E-01
      3.50000000E+00  6.00000000E+00  7.47500000E-01
      4.00000000E+00  6.00000000E+00  7.37500000E-01
      4.50000000E+00  6.00000000E+00  7.27500000E-01
      5.00000000E+00  6.00000000E+00  7.17500000E-01
      5.50000000E+00  6.00000000E+00  7.07500000E-01
      6.00000000E+00  6.00000000E+00  6.97500000E-01
      6.50000000E+00  6.00000000E+00  6.87500000E-01
      7.00000000E+00  6.00000000E+00  6.77500000E-01
      7.50000000E+00  6.00000000E+00  6.67500000E-01
      8.00000000E+00  6.00000000E+00  6.57500000E-01
[...]
POINT_DATA     7056
SCALARS pressure float
LOOKUP_TABLE default
 -0.11449247205623403     
 -0.11343074317628948     
 -0.11301798134905709     
 -0.11273316835578205     
 -0.11244830864143891     
 -0.11217464928452744     
 -0.11192456501857724     
 -0.11167550711831221     
 -0.11142857518033285     
 -0.11117892545761746     
 -0.11091975746040618     
 -0.11063521072200717     
 -0.11031708803768621     
 -0.10994897236145622     
 -0.10950215199450104     
 -0.10893936893204514     
 -0.10819822021069744     
 -0.10717877438743742     
 -0.10591461382917410     
 -0.10265458248484770     
 -0.10188965697374319     
 -0.11263282597292673     
 -0.11212889659759286     
 -0.11097993075283306     
 -0.11084027444143597     
 -0.11056498884917848     
 -0.11030776316658890     
 -0.11005772476244101     
 -0.10981155672566865     
 -0.10955740047427211     
 -0.10929726117651169     
 -0.10901326202405077     
 -0.10869709425130948     
 -0.10832957451876357     
 -0.10788514798981479     
 -0.10732866826271283     
 -0.10660967009881360     
 -0.10564973124737108     
 -0.10432831887720061     
 -0.10256558344947249     
  -9.8867038951625186E-002
  -9.8902014116679343E-002
 -0.11097171026727820     
 -0.11027020367541132     
 -0.10858299429899505     
 -0.10822097977511221     
 -0.10766399879182338     
 -0.10715815795822373     
 -0.10667497171749894     
 -0.10620309182724404     
 -0.10572952888596307     
 -0.10523893570852912     
 -0.10471349804655983     
 -0.10412950824866700     
 -0.10345714107797559     
 -0.10265285701835922     
 -0.10165841760351710     
 -0.10038883567572496     
  -9.8728016438817220E-002
  -9.6524483777577150E-002
  -9.3715689298643171E-002
  -8.9115756127108744E-002
  -8.8636584652636366E-002
 -0.10936224037123447     
 -0.10913594084851765     
 -0.10708396605604499     
 -0.10644635009231497     
 -0.10563260587564527     
 -0.10486948031686898     
 -0.10412221580054870     
 -0.10337687468737225     
 -0.10261535264518230     
 -0.10181497775318855     
 -0.10094776477260230     
  -9.9976517394108247E-002
  -9.8852692600625458E-002
  -9.7513184233334591E-002
  -9.5883256087507598E-002
  -9.3891521870097916E-002
  -9.1456947411270403E-002
  -8.8433936391290685E-002
  -8.4647892341299505E-002
  -7.8851003230232405E-002
  -7.8410128424283812E-002
 -0.10757058748465476     
 -0.10761027148537525     
 -0.10515569089385339     
 -0.10418181007855118     
 -0.10305160422138863     
 -0.10195836113706223     
 -0.10087243354956967     
  -9.9772242395589100E-002
  -9.8632614000273108E-002
  -9.7421965240952618E-002
  -9.6106126821214555E-002
  -9.4645927245992537E-002
  -9.3007986172175330E-002
  -9.1139529649602230E-002
  -8.8954205032668113E-002
  -8.6338856398304159E-002
  -8.3113012163831351E-002
  -7.8954792926911710E-002
  -7.3907702406641254E-002
  -6.7448443163249536E-002
  -6.7084794221275668E-002
 -0.10560518724183073     
 -0.10580395325611301     
 -0.10294998803568718     
 -0.10155575387854505     
 -0.10002255768166318     
  -9.8507478752109218E-002
  -9.6980458510558226E-002
  -9.5421975906757855E-002
  -9.3818062665201332E-002
  -9.2158716377831199E-002
  -9.0409728956082722E-002
  -8.8513936277091726E-002
  -8.6398846085858974E-002
  -8.3960477688122787E-002
  -8.1026847085029927E-002
  -7.7445280439871089E-002
  -7.3313207970610333E-002
  -6.8555544431085289E-002
  -6.3113473672940304E-002
  -5.6262969346321121E-002
  -5.5888722189936665E-002
 -0.10337537961929166     
 -0.10363422878112100     
 -0.10033990195906831     
  -9.8424693863864446E-002
  -9.6381467342919844E-002
  -9.4351349004979213E-002
  -9.2342185827855902E-002
  -9.0349974909024272E-002
  -8.8334041841276287E-002
  -8.6241951669392192E-002
  -8.4002601157401366E-002
  -8.1507874086628199E-002
  -7.8634586530123673E-002
  -7.5439325750408695E-002
  -7.1913783384852492E-002
  -6.7967805008353907E-002
  -6.3548445079059990E-002
  -5.8541299796261229E-002
  -5.1998826756993632E-002
  -4.4269972927276795E-002
  -4.3870878713692857E-002
 -0.10074131412480056     
 -0.10099343931192221     
  -9.7176122274572355E-002
  -9.4635419091546852E-002
  -9.2057415122991273E-002
  -8.9563829978651491E-002
  -8.7107827056317200E-002
  -8.4631639838085498E-002
  -8.2055790807785842E-002
  -7.9279067403027134E-002
  -7.6341268213071217E-002
  -7.3300209798521421E-002
  -7.0093659491195781E-002
  -6.6653037700158971E-002
  -6.2927327581443468E-002
  -5.8797864760679643E-002
  -5.3548550857501952E-002
  -4.7582402287223838E-002
  -4.0889412106354835E-002
  -3.3371889852764375E-002
  -3.3081500328820727E-002
  -9.7506086456489352E-002
  -9.7708689835350193E-002
  -9.3328752894655698E-002
  -9.0217514041222510E-002
  -8.7135373521319365E-002
  -8.4089619431681306E-002
  -8.0976272056622361E-002
  -7.7740028209729181E-002
  -7.4544176414274438E-002
  -7.1394492107700769E-002
  -6.8235161808754913E-002
  -6.5006132368190014E-002
  -6.1663278775803951E-002
  -5.8004526963980091E-002
  -5.3531558005552642E-002
  -4.8640709678041717E-002
  -4.3270403263217946E-002
  -3.7471184212819017E-002
  -3.0644053151621140E-002
  -2.2664091944937750E-002
  -2.2360166560952605E-002
  -9.3556628834267921E-002
  -9.3675536816861568E-002
  -8.8841580194863642E-002
  -8.5094120480228297E-002
  -8.1279755574239901E-002
  -7.7380036503748154E-002
  -7.3650960552201342E-002
  -7.0114324534996095E-002
  -6.6720155915801410E-002
  -6.3415837972330177E-002
  -6.0145280328975911E-002
  -5.6510444415806250E-002
  -5.2485548048143052E-002
  -4.8280913879380556E-002
  -4.3812161222233373E-002
  -3.9060180692416686E-002
  -3.3898772651884367E-002
  -2.7713273330270127E-002
  -2.0798269392904349E-002
  -1.3174727767712113E-002
  -1.3048655704604303E-002
  -8.8909219291628205E-002
  -8.8899942023291073E-002
  -8.3463873885334661E-002
  -7.8721558180068013E-002
  -7.4137893721323955E-002
  -6.9894258962383340E-002
  -6.5955634597455098E-002
  -6.2277381411879315E-002
  -5.8738685048083147E-002
  -5.4833026710864832E-002
  -5.0922620699065842E-002
  -4.7026372858718253E-002
  -4.3069966808385929E-002
  -3.9042431514317841E-002
  -3.4869963490497417E-002
  -2.9943139369601832E-002
  -2.4514947623672970E-002
  -1.8559312237774659E-002
  -1.1659794434851328E-002
  -4.7963098265439629E-003
  -4.9294602487091705E-003
  -8.3141669577755095E-002
  -8.3008788198038710E-002
  -7.6612874327796260E-002
  -7.1282765882240071E-002
  -6.6427364084915522E-002
  -6.2025119885449558E-002
  -5.7869121762281421E-002
  -5.3479627378334088E-002
  -4.9341894389168285E-002
  -4.5396249989666536E-002
  -4.1590381196697127E-002
  -3.7935002313700950E-002
  -3.4205549394769046E-002
  -3.0078781362418767E-002
  -2.5719739960791896E-002
  -2.1040972362020304E-002
  -1.5936120709272139E-002
  -9.6604485847396424E-003
   5.2538957512687456E-005
   2.9271125387342697E-004
   2.4163246063579620E-004
  -7.5641065267973887E-002
  -7.5462205457992551E-002
  -6.8793733351584285E-002
  -6.3210765130143926E-002
  -5.8168277422336857E-002
  -5.2980113631564116E-002
  -4.8222855125700924E-002
  -4.3858881491912263E-002
  -3.9885658084183019E-002
  -3.6295829012300315E-002
  -3.2518824178917889E-002
  -2.8752986577445405E-002
  -2.4981001332697032E-002
  -2.1149084154068482E-002
  -1.7270756308335806E-002
  -1.2933643380222754E-002
  -7.8282572120213952E-003
   1.0264600380166696E-005
   4.0565110430851043E-004
   8.3103357722428271E-004
   9.1689522830484718E-004
  -6.7246050867246929E-002
  -6.6980325420840106E-002
  -6.0246591031051365E-002
  -5.3943126681056337E-002
  -4.8137832581952103E-002
  -4.2948634485863363E-002
  -3.8418383455666005E-002
  -3.4349018899654506E-002
  -3.0347878175968856E-002
  -2.6598098397011723E-002
  -2.2995664345417780E-002
  -1.9573922984122010E-002
  -1.6305874192687898E-002
  -1.2835314542063610E-002
  -9.0507476349815791E-003
  -5.5021839683666975E-003
   7.4606205420518225E-005
   3.3395499469587896E-004
   8.6007057708660484E-004
   1.4248235622811101E-003
   1.4566644400099678E-003
  -5.7795833608675372E-002
  -5.7527022916917629E-002
  -4.9842669738477695E-002
  -4.3265434707360363E-002
  -3.7695397563648932E-002
  -3.2760446885044724E-002
  -2.8170525624810178E-002
  -2.3988003852170273E-002
  -2.0355800889190541E-002
  -1.7138258039295397E-002
  -1.3907019675561860E-002
  -1.0577144040424934E-002
  -7.8486640446220821E-003
  -5.0250903879623960E-003
   4.5590407391550584E-005
   2.1975126924020621E-004
   4.5602234246445837E-004
   8.2095429030554657E-004
   1.4132341479603516E-003
   1.8540451395153601E-003
   1.8824279724056279E-003
  -4.6136737333861623E-002
  -4.5879179590544897E-002
  -3.8407731892602444E-002
  -3.2071871320167339E-002
  -2.6439485134675294E-002
  -2.1676236580721927E-002
  -1.7616300643305584E-002
  -1.3596482163686741E-002
  -1.0482378333245659E-002
  -7.6686639268564111E-003
  -5.0904059036863229E-003
   2.5283504290626949E-005
   1.6205489753542840E-004
   3.0908008589487275E-004
   4.7746680700846831E-004
   7.2803328588749174E-004
   1.0421228435298167E-003
   1.3817990618700030E-003
   1.9207791656205466E-003
   2.2419061776266817E-003
   2.1733914157447570E-003
  -3.3572303485696744E-002
  -3.3467758676768836E-002
  -2.6009439394140608E-002
  -1.9786018623190640E-002
  -1.4552988589156520E-002
  -1.0630708565970188E-002
  -7.1028551389979658E-003
  -1.2738266773238175E-003
   1.2489124980786056E-004
   2.7612891978258901E-004
   4.0859462702831211E-004
   5.4806263070013978E-004
   7.3905209138313589E-004
   9.6811039590383077E-004
   1.1888301668002443E-003
   1.4107474376191941E-003
   1.6573508859778145E-003
   1.9625090816260109E-003
   2.4938765031781141E-003
   2.6730529463339565E-003
   2.4621347139964439E-003
  -1.8991835387184394E-002
  -1.9123501196455801E-002
  -1.2781389324138538E-002
  -6.6341498471885136E-003
   9.6407918789012971E-005
   3.0952424646607697E-004
   4.9598235559962945E-004
   6.5663636737402404E-004
   8.4041939530051597E-004
   1.0746200485355791E-003
   1.2775936798855255E-003
   1.4643830630138353E-003
   1.6322790641960046E-003
   1.7931688689681682E-003
   1.9639981592375626E-003
   2.1565176105651433E-003
   2.3885769245483596E-003
   2.6814540985037596E-003
   3.2157472004860272E-003
   3.2028497249588133E-003
   2.8059183564194457E-003
   9.9228122410964956E-006
   1.3432871804790921E-004
   5.2103004436588154E-004
   8.5778809124145477E-004
   1.1481170517621908E-003
   1.4861417074998281E-003
   1.7910076002743735E-003
   2.0380227138304947E-003
   2.2361257984174657E-003
   2.3981845534258939E-003
   2.5456929624911918E-003
   2.6872315848649980E-003
   2.8289790959273148E-003
   2.9770929581630660E-003
   3.1387144661475510E-003
   3.3243245178801307E-003
   3.5518733908371557E-003
   3.8437156687380022E-003
   4.3792644258129326E-003
   4.0117241076387464E-003
   3.2811440059535317E-003
   2.4549264299562968E-003
   2.2226405859406000E-003
   3.0960313934937007E-003
   3.8804853455694493E-003
   4.1649346321752127E-003
   4.2037005556243706E-003
   4.1776319526437723E-003
   4.1463478965082477E-003
   4.1265230090974398E-003
   4.1230595740471736E-003
   4.1371641477880514E-003
   4.1689597939418297E-003
   4.2193508165091148E-003
   4.2902730685533182E-003
   4.3845821698731031E-003
   4.5073747494685998E-003
   4.6687435930548365E-003
   4.8858273453098889E-003
   5.2508322831863194E-003
   5.3242413204016067E-003
   4.4032139930838482E-003
   3.6392338111951371E-003
   3.9334207755332678E-003
   4.9516618058671911E-003
   5.9975244823412700E-003
   6.3476732078142526E-003
   6.1364586226376663E-003
   5.8353687178043052E-003
   5.5542884862076264E-003
   5.3218053016305319E-003
   5.1417449897574428E-003
   5.0103246605266655E-003
   4.9225681683604207E-003
   4.8737366390288733E-003
   4.8604518617989638E-003
   4.8810075459443858E-003
   4.9352192579981075E-003
   5.0258335132532198E-003
   5.1612215259888156E-003
   5.3772918483010893E-003
   5.6489053489398458E-003
   5.7878447061253824E-003
 -0.10872455733864435     
 -0.10773512550933048     
 -0.10732236436203327     
 -0.10703795853299596     
 -0.10675292350420666     
 -0.10647876070747292     
 -0.10622783436105680     
 -0.10597766135568520     
 -0.10572932159078580     
 -0.10547790407075568     
 -0.10521654149715225     
 -0.10492933053297220     
 -0.10460799936112075     
 -0.10423614429285750     
 -0.10378510701075690     
 -0.10321747011827838     
 -0.10247066243299248     
 -0.10144478866495740     
 -0.10017197472945250     
  -9.6906617777838475E-002
  -9.6263677396166036E-002
 -0.10694534765515858     
 -0.10657395357689575     
 -0.10542150272747945     
 -0.10528110327617507     
 -0.10500430697372702     
 -0.10474528707523895     
 -0.10449315825838404     
 -0.10424459560030261     
 -0.10398774715304686     
 -0.10372452676499579     
 -0.10343710610592172     
 -0.10311716607067260     
 -0.10274552036704655     
 -0.10229641187084110     
 -0.10173439966935882     
 -0.10100878733387153     
 -0.10004116328492589     
  -9.8711288071968911E-002
  -9.6938448432077731E-002
  -9.3235286808205781E-002
  -9.3386885243620071E-002
 -0.10528665114779900     
 -0.10471507953752791     
 -0.10302469808198617     
 -0.10266007127986254     
 -0.10209984413720176     
 -0.10159033395568730     
 -0.10110334685751680     
 -0.10062768083976516     
 -0.10015034011816028     
  -9.9655845031703813E-002
  -9.9126239278178249E-002
  -9.8537700505965359E-002
  -9.7860313488762646E-002
  -9.7050513039448477E-002
  -9.6050045249231358E-002
  -9.4773867531909389E-002
  -9.3105326691654750E-002
  -9.0889722703113920E-002
  -8.8057872560696929E-002
  -8.3440692136523553E-002
  -8.3069426453024259E-002
 -0.10367276328182824     
 -0.10357422138406322     
 -0.10151750392473839     
 -0.10087527235653063     
 -0.10005756655613215     
  -9.9290628692727451E-002
  -9.8539637724947685E-002
  -9.7790457459661070E-002
  -9.7024893965723974E-002
  -9.6220234625161938E-002
  -9.5348491371090666E-002
  -9.4372362354932335E-002
  -9.3243058085875963E-002
  -9.1896678097037637E-002
  -9.0256197089898751E-002
  -8.8247195215692645E-002
  -8.5792523249000704E-002
  -8.2748832729944585E-002
  -7.8944482219945489E-002
  -7.3148803123049361E-002
  -7.2803249128207750E-002
 -0.10187218660314767     
 -0.10203927330345081     
  -9.9579066648079320E-002
  -9.8600935703455822E-002
  -9.7467208995061505E-002
  -9.6370191067404673E-002
  -9.5280419433863825E-002
  -9.4176251519955193E-002
  -9.3032317409284596E-002
  -9.1816586249495569E-002
  -9.0493810327843649E-002
  -8.9022910957135284E-002
  -8.7369761144625940E-002
  -8.5484690141283626E-002
  -8.3282001024517743E-002
  -8.0649639748362589E-002
  -7.7411979068448905E-002
  -7.3241290372253548E-002
  -6.8155710382685808E-002
  -6.1666384969502025E-002
  -6.1370106650616603E-002
  -9.9897231123774466E-002
 -0.10022318450726962     
  -9.7363792713873076E-002
  -9.5965515625076728E-002
  -9.4428917355465464E-002
  -9.2910040331906751E-002
  -9.1378347690331152E-002
  -8.9812947451846509E-002
  -8.8197931697026333E-002
  -8.6524005897894371E-002
  -8.4760106312910491E-002
  -8.2849269795992164E-002
  -8.0719624820118005E-002
  -7.8269558837184228E-002
  -7.5329074797138185E-002
  -7.1724898499917047E-002
  -6.7559999273732560E-002
  -6.2767077913127467E-002
  -5.7283979334638767E-002
  -5.0434956810655629E-002
  -5.0117333601311306E-002
  -9.7658665805101422E-002
  -9.8042570512883828E-002
  -9.4743876286306927E-002
  -9.2824696099615481E-002
  -9.0776594215578488E-002
  -8.8737171784857780E-002
  -8.6713223214805138E-002
  -8.4705676468439822E-002
  -8.2675147428600604E-002
  -8.0569671897708625E-002
  -7.8319633686054810E-002
  -7.5818260174143823E-002
  -7.2931887387436195E-002
  -6.9707927981966677E-002
  -6.6153262406130744E-002
  -6.2176217865352289E-002
  -5.7722959019972916E-002
  -5.2695470437099462E-002
  -4.6129337089166993E-002
  -3.8378345343818870E-002
  -3.8010153301870596E-002
  -9.5016254103675812E-002
  -9.5389653236020611E-002
  -9.1568493687207347E-002
  -8.9017867520425481E-002
  -8.6423171282413697E-002
  -8.3912969715886757E-002
  -8.1442254335400144E-002
  -7.8954317149275616E-002
  -7.6371396583730489E-002
  -7.3586900220555598E-002
  -7.0623751179572647E-002
  -6.7555317470542262E-002
  -6.4321760404487532E-002
  -6.0853038384442712E-002
  -5.7098307183400691E-002
  -5.2951305443219458E-002
  -4.7685898267811888E-002
  -4.1690681848140156E-002
  -3.4968040074706629E-002
  -2.7439253047043963E-002
  -2.7168106001513218E-002
  -9.1770690490501669E-002
  -9.2089272055427926E-002
  -8.7694436569101933E-002
  -8.4563297737413529E-002
  -8.1464914359759624E-002
  -7.8407552776641368E-002
  -7.5289099468494686E-002
  -7.2036295238106132E-002
  -6.8812732542297639E-002
  -6.5635841212416168E-002
  -6.2449981248905898E-002
  -5.9194776526532315E-002
  -5.5826905771287558E-002
  -5.2162122128007311E-002
  -4.7669441188348177E-002
  -4.2753851517853214E-002
  -3.7358883660546086E-002
  -3.1532825729034653E-002
  -2.4692356173809920E-002
  -1.6701255939147432E-002
  -1.6405290262930874E-002
  -8.7797519069542543E-002
  -8.8021388118386973E-002
  -8.3168973680248198E-002
  -7.9405938423908820E-002
  -7.5586284664306849E-002
  -7.1667783075682515E-002
  -6.7909152656764074E-002
  -6.4343970691908434E-002
  -6.0922995166644671E-002
  -5.7592660647022072E-002
  -5.4301607123573223E-002
  -5.0665853658339331E-002
  -4.6618375843842721E-002
  -4.2392423173749819E-002
  -3.7902561153170138E-002
  -3.3128666818294426E-002
  -2.7954554799931582E-002
  -2.1753024583184503E-002
  -1.4825448983126259E-002
  -7.1960367231468239E-003
  -7.0733039960612400E-003
  -8.3122468549658282E-002
  -8.3205124009979509E-002
  -7.7759915916805464E-002
  -7.3006607260046874E-002
  -6.8391270168729909E-002
  -6.4116479664451415E-002
  -6.0149184115400232E-002
  -5.6444167335722523E-002
  -5.2893189840387100E-002
  -4.8978532108802375E-002
  -4.5046723070800716E-002
  -4.1131151956943994E-002
  -3.7156307551844119E-002
  -3.3110808056071125E-002
  -2.8928703345060442E-002
  -2.3988030151025831E-002
  -1.8547161415018217E-002
  -1.2576381321194265E-002
  -5.6742379248168754E-003
   1.1861208273472965E-003
   1.0534661480861500E-003
  -7.7335376124133520E-002
  -7.7284299371689555E-002
  -7.0867664031228406E-002
  -6.5503592680994871E-002
  -6.0616286651208988E-002
  -5.6184656220675727E-002
  -5.2023551569618867E-002
  -4.7615007861113154E-002
  -4.3456846292663415E-002
  -3.9492919822273841E-002
  -3.5669455957657033E-002
  -3.1997891571841554E-002
  -2.8261996232786499E-002
  -2.4124337404583428E-002
  -1.9755179829166414E-002
  -1.5066887304862516E-002
  -9.9525515672371796E-003
  -3.6739304231632993E-003
   5.8994974766074610E-003
   6.3207342721014219E-003
   6.2442860120720690E-003
  -6.9797332238553431E-002
  -6.9683170710084480E-002
  -6.2984037361489845E-002
  -5.7367639440928632E-002
  -5.2313521412413536E-002
  -4.7106036368465436E-002
  -4.2328450165609197E-002
  -3.7946162482922582E-002
  -3.3955918090233246E-002
  -3.0351488328206902E-002
  -2.6569638932248771E-002
  -2.2794669569277653E-002
  -1.9015008271491083E-002
  -1.5175733152356015E-002
  -1.1292015012455523E-002
  -6.9490731619839766E-003
  -1.8416419508291519E-003
   5.8896388685553960E-003
   6.4060183202968458E-003
   6.9306653411532384E-003
   6.9860613095481233E-003
  -6.1358846316083231E-002
  -6.1137302046504548E-002
  -5.4375854400145696E-002
  -4.8061635990290369E-002
  -4.2235440703938490E-002
  -3.7027299327938044E-002
  -3.2479531109157883E-002
  -2.8402910041119799E-002
  -2.4392130608359937E-002
  -2.0634781122797142E-002
  -1.7025337822055425E-002
  -1.3597395766439816E-002
  -1.0325947937062260E-002
  -6.8505986793448497E-003
  -3.0639141720965679E-003
   4.8453243888534807E-004
   5.9954494574352138E-003
   6.3420302312870774E-003
   6.9136884824049470E-003
   7.5677202449205500E-003
   7.5693258898113019E-003
  -5.1878947324501781E-002
  -5.1641259687621482E-002
  -4.3935149013065611E-002