# vtk DataFile Version 2.0
3D Unstructured Grid of Linear Triangles
ASCII
DATASET UNSTRUCTURED_GRID
FIELD FieldData  1
TIME 1 1 double
        3605.43531
POINTS     7056 float
      0.00000000E+00  1.00000000E+01  1.00000000E+00
      5.00000000E-01  1.00000000E+01  9.93333333E-01
      1.00000000E+00  1.00000000E+01  9.83333333E-01
      1.50000000E+00  1.00000000E+01  9.73333333E-01
      2.00000000E+00  1.00000000E+01  9.63333333E-01
      2.50000000E+00  1.00000000E+01  9.53333333E-01
      3.00000000E+00  1.00000000E+01  9.43333333E-01
      3.50000000E+00  1.00000000E+01  9.33333333E-01
      4.00000000E+00  1.00000000E+01  9.23333333E-01
      4.50000000E+00  1.00000000E+01  9.13333333E-01
      5.00000000E+00  1.00000000E+01  9.03333333E-01
      5.50000000E+00  1.00000000E+01  8.93333333E-01
      6.00000000E+00  1.00000000E+01  8.83333333E-01
      6.50000000E+00  1.00000000E+01  8.73333333E-01
      7.00000000E+00  1.00000000E+01  8.63333333E-01
      7.50000000E+00  1.00000000E+01  8.53333333E-01
      8.00000000E+00  1.00000000E+01  8.43333333E-01
      8.50000000E+00  1.00000000E+01  8.33333333E-01
      9.00000000E+00  1.00000000E+01  8.23333333E-01
      9.50000000E+00  1.00000000E+01  8.13333333E-01
      1.00000000E+01  1.00000000E+01  8.10000000E-01
      0.00000000E+00  9.50000000E+00  9.83333333E-01
      5.00000000E-01  9.50000000E+00  9.82500000E-01
      1.00000000E+00  9.50000000E+00  9.72500000E-01
      1.50000000E+00  9.50000000E+00  9.62500000E-01
      2.00000000E+00  9.50000000E+00  9.52500000E-01
      2.50000000E+00  9.50000000E+00  9.42500000E-01
      3.00000000E+00  9.50000000E+00  9.32500000E-01
      3.50000000E+00  9.50000000E+00  9.22500000E-01
      4.00000000E+00  9.50000000E+00  9.12500000E-01
      4.50000000E+00  9.50000000E+00  9.02500000E-01
      5.00000000E+00  9.50000000E+00  8.92500000E-01
      5.50000000E+00  9.50000000E+00  8.82500000E-01
      6.00000000E+00  9.50000000E+00  8.72500000E-01
      6.50000000E+00  9.50000000E+00  8.62500000E-01
      7.00000000E+00  9.50000000E+00  8.52500000E-01
      7.50000000E+00  9.50000000E+00  8.42500000E-01
      8.00000000E+00  9.50000000E+00  8.32500000E-01
      8.50000000E+00  9.50000000E+00  8.22500000E-01
      9.00000000E+00  9.50000000E+00  8.12500000E-01
      9.50000000E+00  9.50000000E+00  8.02500000E-01
      1.00000000E+01  9.50000000E+00  8.01666667E-01
      0.00000000E+00  9.00000000E+00  9.58333333E-01
      5.00000000E-01  9.00000000E+00  9.57500000E-01
      1.00000000E+00  9.00000000E+00  9.47500000E-01
      1.50000000E+00  9.00000000E+00  9.37500000E-01
      2.00000000E+00  9.00000000E+00  9.27500000E-01
      2.50000000E+00  9.00000000E+00  9.17500000E-01
      3.00000000E+00  9.00000000E+00  9.07500000E-01
      3.50000000E+00  9.00000000E+00  8.97500000E-01
      4.00000000E+00  9.00000000E+00  8.87500000E-01
      4.50000000E+00  9.00000000E+00  8.77500000E-01
      5.00000000E+00  9.00000000E+00  8.67500000E-01
      5.50000000E+00  9.00000000E+00  8.57500000E-01
      6.00000000E+00  9.00000000E+00  8.47500000E-01
      6.50000000E+00  9.00000000E+00  8.37500000E-01
      7.00000000E+00  9.00000000E+00  8.27500000E-01
      7.50000000E+00  9.00000000E+00  8.17500000E-01
      8.00000000E+00  9.00000000E+00  8.07500000E-01
      8.50000000E+00  9.00000000E+00  7.97500000E-01
      9.00000000E+00  9.00000000E+00  7.87500000E-01
      9.50000000E+00  9.00000000E+00  7.77500000E-01
      1.00000000E+01  9.00000000E+00  7.76666667E-01
      0.00000000E+00  8.50000000E+00  9.33333333E-01
      5.00000000E-01  8.50000000E+00  9.32500000E-01
      1.00000000E+00  8.50000000E+00  9.22500000E-01
      1.50000000E+00  8.50000000E+00  9.12500000E-01
      2.00000000E+00  8.50000000E+00  9.02500000E-01
      2.50000000E+00  8.50000000E+00  8.92500000E-01
      3.00000000E+00  8.50000000E+00  8.82500000E-01
      3.50000000E+00  8.50000000E+00  8.72500000E-01
      4.00000000E+00  8.50000000E+00  8.62500000E-01
      4.50000000E+00  8.50000000E+00  8.52500000E-01
      5.00000000E+00  8.50000000E+00  8.42500000E-01
      5.50000000E+00  8.50000000E+00  8.32500000E-01
      6.00000000E+00  8.50000000E+00  8.22500000E-01
      6.50000000E+00  8.50000000E+00  8.12500000E-01
      7.00000000E+00  8.50000000E+00  8.02500000E-01
      7.50000000E+00  8.50000000E+00  7.92500000E-01
      8.00000000E+00  8.50000000E+00  7.82500000E-01
      8.50000000E+00  8.50000000E+00  7.72500000E-01
      9.00000000E+00  8.50000000E+00  7.62500000E-01
      9.50000000E+00  8.50000000E+00  7.52500000E-01
      1.00000000E+01  8.50000000E+00  7.51666667E-01
      0.00000000E+00  8.00000000E+00  9.08333333E-01
      5.00000000E-01  8.00000000E+00  9.07500000E-01
      1.00000000E+00  8.00000000E+00  8.97500000E-01
      1.50000000E+00  8.00000000E+00  8.87500000E-01
      2.00000000E+00  8.00000000E+00  8.77500000E-01
      2.50000000E+00  8.00000000E+00  8.67500000E-01
      3.00000000E+00  8.00000000E+00  8.57500000E-01
      3.50000000E+00  8.00000000E+00  8.47500000E-01
      4.00000000E+00  8.00000000E+00  8.37500000E-01
      4.50000000E+00  8.00000000E+00  8.27500000E-01
      5.00000000E+00  8.00000000E+00  8.17500000E-01
      5.50000000E+00  8.00000000E+00  8.07500000E-01
      6.00000000E+00  8.00000000E+00  7.97500000E-01
      6.50000000E+00  8.00000000E+00  7.87500000E-01
      7.00000000E+00  8.00000000E+00  7.77500000E-01
      7.50000000E+00  8.00000000E+00  7.67500000E-01
      8.00000000E+00  8.00000000E+00  7.57500000E-01
      8.50000000E+00  8.00000000E+00  7.47500000E-01
      9.00000000E+00  8.00000000E+00  7.37500000E-01
      9.50000000E+00  8.00000000E+00  7.27500000E-01
      1.00000000E+01  8.00000000E+00  7.26666667E-01
      0.00000000E+00  7.50000000E+00  8.83333333E-01
      5.00000000E-01  7.50000000E+00  8.82500000E-01
      1.00000000E+00  7.50000000E+00  8.72500000E-01
      1.50000000E+00  7.50000000E+00  8.62500000E-01
      2.00000000E+00  7.50000000E+00  8.52500000E-01
      2.50000000E+00  7.50000000E+00  8.42500000E-01
      3.00000000E+00  7.50000000E+00  8.32500000E-01
      3.50000000E+00  7.50000000E+00  8.22500000E-01
      4.00000000E+00  7.50000000E+00  8.12500000E-01
      4.50000000E+00  7.50000000E+00  8.02500000E-01
      5.00000000E+00  7.50000000E+00  7.92500000E-01
      5.50000000E+00  7.50000000E+00  7.82500000E-01
      6.00000000E+00  7.50000000E+00  7.72500000E-01
      6.50000000E+00  7.50000000E+00  7.62500000E-01
      7.00000000E+00  7.50000000E+00  7.52500000E-01
      7.50000000E+00  7.50000000E+00  7.42500000E-01
      8.00000000E+00  7.50000000E+00  7.32500000E-01
      8.50000000E+00  7.50000000E+00  7.22500000E-01
      9.00000000E+00  7.50000000E+00  7.12500000E-01
      9.50000000E+00  7.50000000E+00  7.02500000E-01
      1.00000000E+01  7.50000000E+00  7.01666667E-01
      0.00000000E+00  7.00000000E+00  8.58333333E-01
      5.00000000E-01  7.00000000E+00  8.57500000E-01
      1.00000000E+00  7.00000000E+00  8.47500000E-01
      1.50000000E+00  7.00000000E+00  8.37500000E-01
      2.00000000E+00  7.00000000E+00  8.27500000E-01
      2.50000000E+00  7.00000000E+00  8.17500000E-01
      3.00000000E+00  7.00000000E+00  8.07500000E-01
      3.50000000E+00  7.00000000E+00  7.97500000E-01
      4.00000000E+00  7.00000000E+00  7.87500000E-01
      4.50000000E+00  7.00000000E+00  7.77500000E-01
      5.00000000E+00  7.00000000E+00  7.67500000E-01
      5.50000000E+00  7.00000000E+00  7.57500000E-01
      6.00000000E+00  7.00000000E+00  7.47500000E-01
      6.50000000E+00  7.00000000E+00  7.37500000E-01
      7.00000000E+00  7.00000000E+00  7.27500000E-01
      7.50000000E+00  7.00000000E+00  7.17500000E-01
      8.00000000E+00  7.00000000E+00  7.07500000E-01
      8.50000000E+00  7.00000000E+00  6.97500000E-01
      9.00000000E+00  7.00000000E+00  6.87500000E-01
      9.50000000E+00  7.00000000E+00  6.77500000E-01
      1.00000000E+01  7.00000000E+00  6.76666667E-01
      0.00000000E+00  6.50000000E+00  8.33333333E-01
      5.00000000E-01  6.50000000E+00  8.32500000E-01
      1.00000000E+00  6.50000000E+00  8.22500000E-01
      1.50000000E+00  6.50000000E+00  8.12500000E-01
      2.00000000E+00  6.50000000E+00  8.02500000E-01
      2.50000000E+00  6.50000000E+00  7.92500000E-01
      3.00000000E+00  6.50000000E+00  7.82500000E-01
      3.50000000E+00  6.50000000E+00  7.72500000E-01
      4.00000000E+00  6.50000000E+00  7.62500000E-01
      4.50000000E+00  6.50000000E+00  7.52500000E-01
      5.00000000E+00  6.50000000E+00  7.42500000E-01
      5.50000000E+00  6.50000000E+00  7.32500000E-01
      6.00000000E+00  6.50000000E+00  7.22500000E-01
      6.50000000E+00  6.50000000E+00  7.12500000E-01
      7.00000000E+00  6.50000000E+00  7.02500000E-01
      7.50000000E+00  6.50000000E+00  6.92500000E-01
      8.00000000E+00  6.50000000E+00  6.82500000E-01
      8.50000000E+00  6.50000000E+00  6.72500000E-01
      9.00000000E+00  6.50000000E+00  6.62500000E-01
      9.50000000E+00  6.50000000E+00  6.52500000E-01
      1.00000000E+01  6.50000000E+00  6.51666667E-01
      0.00000000E+00  6.00000000E+00  8.08333333E-01
      5.00000000E-01  6.00000000E+00  8.07500000E-01
      1.00000000E+00  6.00000000E+00  7.97500000E-01
      1.50000000E+00  6.00000000E+00  7.87500000E-01
      2.00000000E+00  6.00000000E+00  7.77500000E-01
      2.50000000E+00  6.00000000E+00  7.67500000E-01
      3.00000000E+00  6.00000000E+00  7.57500000E-01
      3.50000000E+00  6.00000000E+00  7.47500000E-01
      4.00000000E+00  6.00000000E+00  7.37500000E-01
      4.50000000E+00  6.00000000E+00  7.27500000E-01
      5.00000000E+00  6.00000000E+00  7.17500000E-01
      5.50000000E+00  6.00000000E+00  7.07500000E-01
      6.00000000E+00  6.00000000E+00  6.97500000E-01
      6.50000000E+00  6.00000000E+00  6.87500000E-01
      7.00000000E+00  6.00000000E+00  6.77500000E-01
      7.50000000E+00  6.00000000E+00  6.67500000E-01
      8.00000000E+00  6.00000000E+00  6.57500000E-01
[...]
POINT_DATA     7056
SCALARS pressure float
LOOKUP_TABLE default
 -0.11449247186864059     
 -0.11343074383539818     
 -0.11301798372655834     
 -0.11273316817765994     
 -0.11244831791719960     
 -0.11217465968887014     
 -0.11192457724360425     
 -0.11167552455554085     
 -0.11142859729067239     
 -0.11117894982519648     
 -0.11091978914184093     
 -0.11063524625824446     
 -0.11031713073399114     
 -0.10994902291378127     
 -0.10950221217100356     
 -0.10893944318400960     
 -0.10819831877830960     
 -0.10717890982630562     
 -0.10591481976377408     
 -0.10265489211270169     
 -0.10189001002735586     
 -0.11263282831698675     
 -0.11212889993993200     
 -0.11097993603861907     
 -0.11084028332679205     
 -0.11056499841207777     
 -0.11030777436515918     
 -0.11005773920249108     
 -0.10981157461157522     
 -0.10955741991057066     
 -0.10929728489088190     
 -0.10901329096465795     
 -0.10869714039203213     
 -0.10832961234311012     
 -0.10788520204348036     
 -0.10732874334568240     
 -0.10660977083569022     
 -0.10564986580923046     
 -0.10432851975942944     
 -0.10256588393579875     
  -9.8867506208519348E-002
  -9.8902516421341763E-002
 -0.11097172471869358     
 -0.11027019931494499     
 -0.10858299762841551     
 -0.10822099614936256     
 -0.10766401981787786     
 -0.10715818322866953     
 -0.10667500352808686     
 -0.10620312507821776     
 -0.10572957518672754     
 -0.10523899517542329     
 -0.10471357240027537     
 -0.10412960279001048     
 -0.10345726387142098     
 -0.10265301031804547     
 -0.10165863066386750     
 -0.10038911785587321     
  -9.8728426475284931E-002
  -9.6525046653910596E-002
  -9.3716436758439589E-002
  -8.9116729574577336E-002
  -8.8637598564482376E-002
 -0.10936226655829891     
 -0.10913595074984175     
 -0.10708414069574454     
 -0.10644635743957084     
 -0.10563264554102404     
 -0.10486953669161996     
 -0.10412228584984062     
 -0.10337696810552241     
 -0.10261545883641056     
 -0.10181516733413151     
 -0.10094794366423966     
  -9.9976761673388426E-002
  -9.8853012880312910E-002
  -9.7513605581529411E-002
  -9.5883803768305784E-002
  -9.3892212799074892E-002
  -9.1457843221813689E-002
  -8.8435074092411567E-002
  -8.4649380905254770E-002
  -7.8852993934014098E-002
  -7.8412176985460991E-002
 -0.10757062663296647     
 -0.10761030400062546     
 -0.10515570971784377     
 -0.10418183764345261     
 -0.10305169275010255     
 -0.10195848147585987     
 -0.10087258932716249     
  -9.9772445499485066E-002
  -9.8632874360321920E-002
  -9.7422285628236280E-002
  -9.6106538187333709E-002
  -9.4646455086854014E-002
  -9.3008635984952903E-002
  -9.1140337195341703E-002
  -8.8955207017742802E-002
  -8.6340140290799394E-002
  -8.3114729349066441E-002
  -7.8957020737300501E-002
  -7.3910280090969546E-002
  -6.7451303288268399E-002
  -6.7087718766709048E-002
 -0.10560525766349922     
 -0.10580402044087432     
 -0.10295008342103899     
 -0.10155588388217084     
 -0.10002275788339593     
  -9.8507722859928593E-002
  -9.6980774555587929E-002
  -9.5422381310873064E-002
  -9.3818564227196463E-002
  -9.2159323263245524E-002
  -9.0410472126548388E-002
  -8.8514853642866154E-002
  -8.6399964450099551E-002
  -8.3961907456667137E-002
  -8.1028724874979099E-002
  -7.7447576830263543E-002
  -7.3315926591675087E-002
  -6.8558703757447978E-002
  -6.3116944975906183E-002
  -5.6267474830583565E-002
  -5.5893366928843162E-002
 -0.10337550942449150     
 -0.10363436623179695     
 -0.10034008803298661     
  -9.8424958798953008E-002
  -9.6381820713813099E-002
  -9.4351809002899675E-002
  -9.2342746511902857E-002
  -9.0350657182512673E-002
  -8.8334873619157345E-002
  -8.6242968528519662E-002
  -8.4003863053873043E-002
  -8.1509462418895395E-002
  -7.8636576377341727E-002
  -7.5441652461957789E-002
  -7.1916513759362144E-002
  -6.7970999811665711E-002
  -6.3552088365251280E-002
  -5.8545704997717149E-002
  -5.2004193348026681E-002
  -4.4275850168343463E-002
  -4.3876865521055186E-002
 -0.10074156272561875     
 -0.10099370169220749     
  -9.7176473350826534E-002
  -9.4635908399683610E-002
  -9.2058010831186338E-002
  -8.9564572897981046E-002
  -8.7108761734613460E-002
  -8.4632780101673688E-002
  -8.2057188740423045E-002
  -7.9280823492757543E-002
  -7.6343292378603267E-002
  -7.3302503839140720E-002
  -7.0096316120565494E-002
  -6.6656139063578437E-002
  -6.2930865014091009E-002
  -5.8802193974874656E-002
  -5.3553854632593240E-002
  -4.7588441106999703E-002
  -4.0896386872680046E-002
  -3.3380900264966804E-002
  -3.3091058801973980E-002
  -9.7506538509430848E-002
  -9.7709164742936630E-002
  -9.3329356049751108E-002
  -9.0218293701714122E-002
  -8.7136353552271520E-002
  -8.4090845652598348E-002
  -8.0977817656019191E-002
  -7.7741909964804942E-002
  -7.4546281991008018E-002
  -7.1396867030893693E-002
  -6.8237846442473674E-002
  -6.5009152712732166E-002
  -6.1666590779875373E-002
  -5.8008884266873402E-002
  -5.3536672444026649E-002
  -4.8646483951882820E-002
  -4.3276971158157207E-002
  -3.7478407183135463E-002
  -3.0654708624562779E-002
  -2.2678167643225933E-002
  -2.2375469934265160E-002
  -9.3557375714243024E-002
  -9.3676334148368873E-002
  -8.8842534752584565E-002
  -8.5095473815653494E-002
  -8.1281380887643723E-002
  -7.7382006476195100E-002
  -7.3653185716096470E-002
  -7.0116813348778520E-002
  -6.6722926610375530E-002
  -6.3418900129679184E-002
  -6.0148724605134582E-002
  -5.6514895792618994E-002
  -5.2490475492745374E-002
  -4.8286382816634860E-002
  -4.3818190821277199E-002
  -3.9066605896559366E-002
  -3.3906825281612964E-002
  -2.7723590962791936E-002
  -2.0813612003604015E-002
  -1.3199927363450988E-002
  -1.3077266136297302E-002
  -8.8910426667872092E-002
  -8.8901203919291821E-002
  -8.3465465830911342E-002
  -7.8723626256142681E-002
  -7.4140246915712832E-002
  -6.9896877576941935E-002
  -6.5958569196764100E-002
  -6.2280590093359726E-002
  -5.8742436257710334E-002
  -5.4837527327613579E-002
  -5.0927487791082256E-002
  -4.7031687758021010E-002
  -4.3075772376895693E-002
  -3.9048567362499335E-002
  -3.4877122846627404E-002
  -2.9950835441513435E-002
  -2.4523561102950932E-002
  -1.8569603265639060E-002
  -1.1679342971951660E-002
  -4.8655203204697071E-003
  -5.0036562423769766E-003
  -8.3143729083607842E-002
  -8.3010917584361438E-002
  -7.6615371308292032E-002
  -7.1285601824510408E-002
  -6.6430528514338560E-002
  -6.2028557320092263E-002
  -5.7873394997755193E-002
  -5.3484319003687220E-002
  -4.9346899445021589E-002
  -4.5401663836813752E-002
  -4.1596155631058632E-002
  -3.7940958182426369E-002
  -3.4212665750071085E-002
  -3.0086413270146831E-002
  -2.5727503408379454E-002
  -2.1048415814136450E-002
  -1.5943526881875194E-002
  -9.6676077324984924E-003
   5.0730803798854981E-005
   2.8923601495467748E-004
   2.3851762898317476E-004
  -7.5644097054290829E-002
  -7.5465331056395135E-002
  -6.8797133855395223E-002
  -6.3214504195829926E-002
  -5.8172814922566249E-002
  -5.2985124812845057E-002
  -4.8228190426191621E-002
  -4.3864530454120171E-002
  -3.9891488222309243E-002
  -3.6301740204714467E-002
  -3.2526000591097330E-002
  -2.8760536434718674E-002
  -2.4989049487226758E-002
  -2.1157038237127047E-002
  -1.7277966057739989E-002
  -1.2940173034356513E-002
  -7.8334905075808370E-003
   9.0739406033328141E-006
   4.0267040469114468E-004
   8.2528786607308452E-004
   9.1014986767508593E-004
  -6.7250169121885292E-002
  -6.6984522241481714E-002
  -6.0251042271708133E-002
  -5.3948571286597753E-002
  -4.8143648377873847E-002
  -4.2954800342061700E-002
  -3.8424611471744002E-002
  -3.4356147468956467E-002
  -3.0355202226417223E-002
  -2.6605908404850127E-002
  -2.3003904860309683E-002
  -1.9581412443537453E-002
  -1.6313321712948581E-002
  -1.2842344466166382E-002
  -9.0564657291649087E-003
  -5.5068909774150989E-003
   7.3425683565472586E-005
   3.3155961521944693E-004
   8.5589153446332712E-004
   1.4191130813997772E-003
   1.4501900493505604E-003
  -5.7801923782355061E-002
  -5.7533148997549639E-002
  -4.9849178956467004E-002
  -4.3272534098400893E-002
  -3.7702228936470947E-002
  -3.2768408306997107E-002
  -2.8179142788027602E-002
  -2.3997156422206307E-002
  -2.0363767379091499E-002
  -1.7146307376333613E-002
  -1.3915004329425669E-002
  -1.0583642263549112E-002
  -7.8544275186436287E-003
  -5.0299275631049906E-003
   4.4333057292420208E-005
   2.1794474695182133E-004
   4.5361892006836669E-004
   8.1713564690512807E-004
   1.4086092071442290E-003
   1.8474222100010019E-003
   1.8748687102962528E-003
  -4.6144050243417736E-002
  -4.5886700177262901E-002
  -3.8415801132098075E-002
  -3.2081897517755996E-002
  -2.6448926777957068E-002
  -2.1686127075537628E-002
  -1.7628063544990163E-002
  -1.3612391804435660E-002
  -1.0491906668303764E-002
  -7.6824436055910363E-003
  -5.1008802234363574E-003
   2.3990024140757423E-005
   1.6013843294712595E-004
   3.0715030133469202E-004
   4.7495080889312932E-004
   7.2424429960593563E-004
   1.0381710751421942E-003
   1.3773953138862577E-003
   1.9154392749544183E-003
   2.2341672180344533E-003
   2.1642546913634301E-003
  -3.3580633060521753E-002
  -3.3476897933383556E-002
  -2.6020606113245196E-002
  -1.9801923922005589E-002
  -1.4564129958997220E-002
  -1.0642728352798288E-002
  -7.1182683021617354E-003
  -1.4002461821390503E-003
   1.2289372814515816E-004
   2.7391934158814131E-004
   4.0633180439941601E-004
   5.4530005367332986E-004
   7.3501075751347634E-004
   9.6396188460584685E-004
   1.1845688665241246E-003
   1.4063146896938032E-003
   1.6525496298758070E-003
   1.9571615919359510E-003
   2.4875867475129126E-003
   2.6641351466464374E-003
   2.4515014732225749E-003
  -1.8999519893494524E-002
  -1.9132318486861970E-002
  -1.2797004115667776E-002
  -6.6962420514854511E-003
   9.4423412117349822E-005
   3.0695056264655739E-004
   4.9327857624639141E-004
   6.5334714614310996E-004
   8.3613603054990854E-004
   1.0698141604453678E-003
   1.2726525318012716E-003
   1.4593873612259701E-003
   1.6272176650365534E-003
   1.7879243933693228E-003
   1.9585379688752359E-003
   2.1507792572555929E-003
   2.3824593706730734E-003
   2.6748079987384474E-003
   3.2081714050704725E-003
   3.1926357242023046E-003
   2.7938791199663602E-003
   7.2426389330077821E-006
   1.3211668121424782E-004
   5.1807957156148755E-004
   8.5410977198704203E-004
   1.1434038893265738E-003
   1.4800868813446676E-003
   1.7847490338462886E-003
   2.0315226640105514E-003
   2.2295504742429993E-003
   2.3915098179228544E-003
   2.5388582139943407E-003
   2.6802373740164934E-003
   2.8218038724434026E-003
   2.9697124611438178E-003
   3.1311105650443658E-003
   3.3164445516227414E-003
   3.5436173665316720E-003
   3.8349348705900934E-003
   4.3695291824432381E-003
   3.9998941173477283E-003
   3.2677888410661219E-003
   2.4482176511730538E-003
   2.2161535115607055E-003
   3.0883461723512887E-003
   3.8713393038514381E-003
   4.1548481629434808E-003
   4.1927550655326178E-003
   4.1658676875233440E-003
   4.1340159673151165E-003
   4.1138456365105245E-003
   4.1102210283564472E-003
   4.1243214836841026E-003
   4.1562285078546478E-003
   4.2067957464458957E-003
   4.2779168845435032E-003
   4.3724247795084254E-003
   4.4953920945925993E-003
   4.6568783944666049E-003
   4.8739968544439741E-003
   5.2388588234578478E-003
   5.3122474279977882E-003
   4.3902013670783814E-003
   3.6311658580722903E-003
   3.9249912014919968E-003
   4.9419957995513941E-003
   5.9863442245455863E-003
   6.3349699542491365E-003
   6.1220801560121539E-003
   5.8194548941642331E-003
   5.5373656672041459E-003
   5.3043014845701765E-003
   5.1240191216134620E-003
   4.9926797246450114E-003
   4.9052460183890197E-003
   4.8569063808863288E-003
   4.8442093561320183E-003
   4.8653917419808502E-003
   4.9202334921358108E-003
   5.0114567025823942E-003
   5.1474241656032345E-003
   5.3640628851235814E-003
   5.6367875676669585E-003
   5.7771808209950461E-003
 -0.10872455710553149     
 -0.10773512610342598     
 -0.10732236669123482     
 -0.10703795820455740     
 -0.10675293284276004     
 -0.10647877120024191     
 -0.10622784668582116     
 -0.10597767908331945     
 -0.10572934414010084     
 -0.10547792890298416     
 -0.10521657392875595     
 -0.10492936711006950     
 -0.10460804333338591     
 -0.10423619638734802     
 -0.10378516899111605     
 -0.10321754652691170     
 -0.10247076364934164     
 -0.10144492731864616     
 -0.10017218467689178     
  -9.6906931866553567E-002
  -9.6264037420316473E-002
 -0.10694534990646630     
 -0.10657395691698135     
 -0.10542150805019294     
 -0.10528111234348159     
 -0.10500431678142477     
 -0.10474529864743315     
 -0.10449317323021065     
 -0.10424461412274742     
 -0.10398776720709493     
 -0.10372455158933300     
 -0.10343713635446972     
 -0.10311721370739664     
 -0.10274555995674019     
 -0.10229646809702023     
 -0.10173447751259239     
 -0.10100889156543794     
 -0.10004130232601034     
  -9.8711494611265715E-002
  -9.6938755791883671E-002
  -9.3235762556649657E-002
  -9.3387399517695743E-002
 -0.10528666573622876     
 -0.10471507538156166     
 -0.10302470173331311     
 -0.10266008848887595     
 -0.10209986583254083     
 -0.10159036017481049     
 -0.10110337973948885     
 -0.10062771532829909     
 -0.10015038784249237     
  -9.9655906259931745E-002
  -9.9126315697509404E-002
  -9.8537797607686356E-002
  -9.7860439417788825E-002
  -9.7050670119099722E-002
  -9.6050262997432231E-002
  -9.4774155311581912E-002
  -9.3105744344655531E-002
  -9.0890297790270122E-002
  -8.8058636516848407E-002
  -8.3441682391419275E-002
  -8.3070461771773602E-002
 -0.10367279010301488     
 -0.10357423181720872     
 -0.10151767954283594     
 -0.10087528085365413     
 -0.10005760733400135     
  -9.9290686366741307E-002
  -9.8539709346233822E-002
  -9.7790552801157948E-002
  -9.7025002561616322E-002
  -9.6220428040774297E-002
  -9.5348673758070282E-002
  -9.4372610793325915E-002
  -9.3243383546110434E-002
  -9.1897106434538120E-002
  -9.0256755695735116E-002
  -8.8247901491235722E-002
  -8.5793435997768730E-002
  -8.2749988800722263E-002
  -7.8945986220442688E-002
  -7.3150818975811896E-002
  -7.2805326411932145E-002
 -0.10187222672495289     
 -0.10203930680581687     
  -9.9579086861474958E-002
  -9.8600964707958441E-002
  -9.7467299227255236E-002
  -9.6370313531604732E-002
  -9.5280577778982647E-002
  -9.4176457661899068E-002
  -9.3032581506559353E-002
  -9.1816911434977208E-002
  -9.0494228517229672E-002
  -8.9023449101904475E-002
  -8.7370424132625274E-002
  -8.5485512707075398E-002
  -8.3283020095415911E-002
  -8.0650940959038728E-002
  -7.7413710713910677E-002
  -7.3243549182791093E-002
  -6.8158321176391146E-002
  -6.1669282907282318E-002
  -6.1373081339170396E-002
  -9.9897302857628906E-002
 -0.10022325331538487     
  -9.7363890008592718E-002
  -9.5965647694195647E-002
  -9.4429120439628936E-002
  -9.2910287854133564E-002
  -9.1378668039445846E-002
  -8.9813359212836466E-002
  -8.8198442901912047E-002
  -8.6524624452912813E-002
  -8.4760862567570650E-002
  -8.2850201621941622E-002
  -8.0720758620314886E-002
  -7.8271002658729161E-002
  -7.5330967093646659E-002
  -7.1727227141203387E-002
  -6.7562750122843684E-002
  -6.2770271019172000E-002
  -5.7287491162877485E-002
  -5.0439517156781889E-002
  -5.0122052564120029E-002
  -9.7658797495631791E-002
  -9.8042710690440932E-002
  -9.4744065383915541E-002
  -9.2824964727071066E-002
  -9.0776952574756598E-002
  -8.8737640979743238E-002
  -8.6713794853519849E-002
  -8.4706370521371060E-002
  -8.2675992062989617E-002
  -8.0570702350385437E-002
  -7.8320908483381774E-002
  -7.5819859715505075E-002
  -7.2933905743060495E-002
  -6.9710286040822259E-002
  -6.6156024703203503E-002
  -6.2179446724997881E-002
  -5.7726638848532866E-002
  -5.2699869293703336E-002
  -4.6134753725928609E-002
  -3.8384283228920561E-002
  -3.8016222596168735E-002
  -9.5016505397125237E-002
  -9.5389919715406377E-002
  -9.1568849953133080E-002
  -8.9018366503839472E-002
  -8.6423778668090562E-002
  -8.3913725081285639E-002
  -8.1443201671116128E-002
  -7.8955469849140938E-002
  -7.6372805274958530E-002
  -7.3588676727857710E-002
  -7.0625804562188935E-002
  -6.7557641513718056E-002
  -6.4324448914632001E-002
  -6.0856173164816181E-002
  -5.7101877314336497E-002
  -5.2955629872299036E-002
  -4.7691239301919916E-002
  -4.1696768058347100E-002
  -3.4975075961634169E-002
  -2.7448322839022835E-002
  -2.7177744621298666E-002
  -9.1771147615782575E-002
  -9.2089753777769179E-002
  -8.7695052130298753E-002
  -8.4564091227903732E-002
  -8.1465908044489221E-002
  -7.8408791704256769E-002
  -7.5290655519379121E-002
  -7.2038203932063935E-002
  -6.8814867463798696E-002
  -6.5638245852859628E-002
  -6.2452696745382889E-002
  -5.9197829953916335E-002
  -5.5830250594371723E-002
  -5.2166465130367178E-002
  -4.7674584998759088E-002
  -4.2759657231006686E-002
  -3.7365486955240911E-002
  -3.1540097756982022E-002
  -2.4703064824162978E-002
  -1.6715367006765767E-002
  -1.6420631987302432E-002
  -8.7798276465110431E-002
  -8.8022201086135080E-002
  -8.3169944385636810E-002
  -7.9407307159720525E-002
  -7.5587923077793551E-002
  -7.1669781654430345E-002
  -6.7911407879914995E-002
  -6.4346489751361466E-002
  -6.0925796377507932E-002
  -5.7595754098766404E-002
  -5.4305070581028757E-002
  -5.0670337038630442E-002
  -4.6623333122942034E-002
  -4.2397918385971206E-002
  -3.7908615204813353E-002
  -3.3135115901064681E-002
  -2.7962625622559790E-002
  -2.1763362149208057E-002
  -1.4840838587438530E-002
  -7.2212685875177761E-003
  -7.1019241274083902E-003
  -8.3123688976884866E-002
  -8.3206405779517711E-002
  -7.7761523211161004E-002
  -7.3008707123293312E-002
  -6.8393655632038627E-002
  -6.4119132168714316E-002
  -6.0152152011038809E-002
  -5.6447405626664428E-002
  -5.2896936958252719E-002
  -4.8983061768969001E-002
  -4.5051618085044744E-002
  -4.1136491353590932E-002
  -3.7162133220392628E-002
  -3.3116958728540910E-002
  -2.8935866212357993E-002
  -2.3995728334935181E-002
  -1.8555775222714926E-002
  -1.2586666491744019E-002
  -5.6937646183430569E-003
   1.1186973513893981E-003
   9.8088063149337338E-004
  -7.7337446215218070E-002
  -7.7286445071131693E-002
  -7.0870194868106404E-002
  -6.5506464307968679E-002
  -6.0619485535666706E-002
  -5.6188125173481408E-002
  -5.2027819018474628E-002
  -4.7619730354340160E-002
  -4.3461874283657630E-002
  -3.9498351190093227E-002
  -3.5675248209242193E-002
  -3.2003860534937673E-002
  -2.8269110020694162E-002
  -2.4131957709898511E-002
  -1.9762929855060174E-002
  -1.5074322364947743E-002
  -9.9599513010685606E-003
  -3.6810854843638721E-003
   5.8974467734283394E-003
   6.3169414568028841E-003
   6.2408176976808333E-003
  -6.9800392924466284E-002
  -6.9686335783190584E-002
  -6.2987475072288801E-002
  -5.7371415749937073E-002
  -5.2318047529063202E-002
  -4.7111079688688870E-002
  -4.2333818660158673E-002
  -3.7951842479945930E-002
  -3.3961767546157970E-002
  -3.0357392593946157E-002
  -2.6576809390353413E-002
  -2.2802208652393654E-002
  -1.9023034597500224E-002
  -1.5183661265986999E-002
  -1.1299209916059587E-002
  -6.9555953565351271E-003
  -1.8468731038480458E-003
   5.8883193877917739E-003
   6.4029758556457973E-003
   6.9248884189955610E-003
   6.9792925569330429E-003
  -6.1362996533276176E-002
  -6.1141542606669430E-002
  -5.4380332768024529E-002
  -4.8067119457293479E-002
  -4.2241291965728893E-002
  -3.7033498542008783E-002
  -3.2485789501376892E-002
  -2.8410062481217729E-002
  -2.4399466706668191E-002
  -2.0642588539419970E-002
  -1.7033558534315582E-002
  -1.3604869617074366E-002
  -1.0333375313544118E-002
  -6.8576123294920664E-003
  -3.0696257182547936E-003
   4.7982724493635370E-004
   5.9941769981676687E-003
   6.3395916947816579E-003
   6.9094863568265495E-003
   7.5619912107832647E-003
   7.5628381917557039E-003
  -5.1885069266020149E-002
  -5.1647431949021404E-002
  -4.3941700523443407E-002