# vtk DataFile Version 2.0
3D Unstructured Grid of Linear Triangles
ASCII
DATASET UNSTRUCTURED_GRID
FIELD FieldData  1
TIME 1 1 double
        3600.00000
POINTS     7056 float
      0.00000000E+00  1.00000000E+01  1.00000000E+00
      5.00000000E-01  1.00000000E+01  9.93333333E-01
      1.00000000E+00  1.00000000E+01  9.83333333E-01
      1.50000000E+00  1.00000000E+01  9.73333333E-01
      2.00000000E+00  1.00000000E+01  9.63333333E-01
      2.50000000E+00  1.00000000E+01  9.53333333E-01
      3.00000000E+00  1.00000000E+01  9.43333333E-01
      3.50000000E+00  1.00000000E+01  9.33333333E-01
      4.00000000E+00  1.00000000E+01  9.23333333E-01
      4.50000000E+00  1.00000000E+01  9.13333333E-01
      5.00000000E+00  1.00000000E+01  9.03333333E-01
      5.50000000E+00  1.00000000E+01  8.93333333E-01
      6.00000000E+00  1.00000000E+01  8.83333333E-01
      6.50000000E+00  1.00000000E+01  8.73333333E-01
      7.00000000E+00  1.00000000E+01  8.63333333E-01
      7.50000000E+00  1.00000000E+01  8.53333333E-01
      8.00000000E+00  1.00000000E+01  8.43333333E-01
      8.50000000E+00  1.00000000E+01  8.33333333E-01
      9.00000000E+00  1.00000000E+01  8.23333333E-01
      9.50000000E+00  1.00000000E+01  8.13333333E-01
      1.00000000E+01  1.00000000E+01  8.10000000E-01
      0.00000000E+00  9.50000000E+00  9.83333333E-01
      5.00000000E-01  9.50000000E+00  9.82500000E-01
      1.00000000E+00  9.50000000E+00  9.72500000E-01
      1.50000000E+00  9.50000000E+00  9.62500000E-01
      2.00000000E+00  9.50000000E+00  9.52500000E-01
      2.50000000E+00  9.50000000E+00  9.42500000E-01
      3.00000000E+00  9.50000000E+00  9.32500000E-01
      3.50000000E+00  9.50000000E+00  9.22500000E-01
      4.00000000E+00  9.50000000E+00  9.12500000E-01
      4.50000000E+00  9.50000000E+00  9.02500000E-01
      5.00000000E+00  9.50000000E+00  8.92500000E-01
      5.50000000E+00  9.50000000E+00  8.82500000E-01
      6.00000000E+00  9.50000000E+00  8.72500000E-01
      6.50000000E+00  9.50000000E+00  8.62500000E-01
      7.00000000E+00  9.50000000E+00  8.52500000E-01
      7.50000000E+00  9.50000000E+00  8.42500000E-01
      8.00000000E+00  9.50000000E+00  8.32500000E-01
      8.50000000E+00  9.50000000E+00  8.22500000E-01
      9.00000000E+00  9.50000000E+00  8.12500000E-01
      9.50000000E+00  9.50000000E+00  8.02500000E-01
      1.00000000E+01  9.50000000E+00  8.01666667E-01
      0.00000000E+00  9.00000000E+00  9.58333333E-01
      5.00000000E-01  9.00000000E+00  9.57500000E-01
      1.00000000E+00  9.00000000E+00  9.47500000E-01
      1.50000000E+00  9.00000000E+00  9.37500000E-01
      2.00000000E+00  9.00000000E+00  9.27500000E-01
      2.50000000E+00  9.00000000E+00  9.17500000E-01
      3.00000000E+00  9.00000000E+00  9.07500000E-01
      3.50000000E+00  9.00000000E+00  8.97500000E-01
      4.00000000E+00  9.00000000E+00  8.87500000E-01
      4.50000000E+00  9.00000000E+00  8.77500000E-01
      5.00000000E+00  9.00000000E+00  8.67500000E-01
      5.50000000E+00  9.00000000E+00  8.57500000E-01
      6.00000000E+00  9.00000000E+00  8.47500000E-01
      6.50000000E+00  9.00000000E+00  8.37500000E-01
      7.00000000E+00  9.00000000E+00  8.27500000E-01
      7.50000000E+00  9.00000000E+00  8.17500000E-01
      8.00000000E+00  9.00000000E+00  8.07500000E-01
      8.50000000E+00  9.00000000E+00  7.97500000E-01
      9.00000000E+00  9.00000000E+00  7.87500000E-01
      9.50000000E+00  9.00000000E+00  7.77500000E-01
      1.00000000E+01  9.00000000E+00  7.76666667E-01
      0.00000000E+00  8.50000000E+00  9.33333333E-01
      5.00000000E-01  8.50000000E+00  9.32500000E-01
      1.00000000E+00  8.50000000E+00  9.22500000E-01
      1.50000000E+00  8.50000000E+00  9.12500000E-01
      2.00000000E+00  8.50000000E+00  9.02500000E-01
      2.50000000E+00  8.50000000E+00  8.92500000E-01
      3.00000000E+00  8.50000000E+00  8.82500000E-01
      3.50000000E+00  8.50000000E+00  8.72500000E-01
      4.00000000E+00  8.50000000E+00  8.62500000E-01
      4.50000000E+00  8.50000000E+00  8.52500000E-01
      5.00000000E+00  8.50000000E+00  8.42500000E-01
      5.50000000E+00  8.50000000E+00  8.32500000E-01
      6.00000000E+00  8.50000000E+00  8.22500000E-01
      6.50000000E+00  8.50000000E+00  8.12500000E-01
      7.00000000E+00  8.50000000E+00  8.02500000E-01
      7.50000000E+00  8.50000000E+00  7.92500000E-01
      8.00000000E+00  8.50000000E+00  7.82500000E-01
      8.50000000E+00  8.50000000E+00  7.72500000E-01
      9.00000000E+00  8.50000000E+00  7.62500000E-01
      9.50000000E+00  8.50000000E+00  7.52500000E-01
      1.00000000E+01  8.50000000E+00  7.51666667E-01
      0.00000000E+00  8.00000000E+00  9.08333333E-01
      5.00000000E-01  8.00000000E+00  9.07500000E-01
      1.00000000E+00  8.00000000E+00  8.97500000E-01
      1.50000000E+00  8.00000000E+00  8.87500000E-01
      2.00000000E+00  8.00000000E+00  8.77500000E-01
      2.50000000E+00  8.00000000E+00  8.67500000E-01
      3.00000000E+00  8.00000000E+00  8.57500000E-01
      3.50000000E+00  8.00000000E+00  8.47500000E-01
      4.00000000E+00  8.00000000E+00  8.37500000E-01
      4.50000000E+00  8.00000000E+00  8.27500000E-01
      5.00000000E+00  8.00000000E+00  8.17500000E-01
      5.50000000E+00  8.00000000E+00  8.07500000E-01
      6.00000000E+00  8.00000000E+00  7.97500000E-01
      6.50000000E+00  8.00000000E+00  7.87500000E-01
      7.00000000E+00  8.00000000E+00  7.77500000E-01
      7.50000000E+00  8.00000000E+00  7.67500000E-01
      8.00000000E+00  8.00000000E+00  7.57500000E-01
      8.50000000E+00  8.00000000E+00  7.47500000E-01
      9.00000000E+00  8.00000000E+00  7.37500000E-01
      9.50000000E+00  8.00000000E+00  7.27500000E-01
      1.00000000E+01  8.00000000E+00  7.26666667E-01
      0.00000000E+00  7.50000000E+00  8.83333333E-01
      5.00000000E-01  7.50000000E+00  8.82500000E-01
      1.00000000E+00  7.50000000E+00  8.72500000E-01
      1.50000000E+00  7.50000000E+00  8.62500000E-01
      2.00000000E+00  7.50000000E+00  8.52500000E-01
      2.50000000E+00  7.50000000E+00  8.42500000E-01
      3.00000000E+00  7.50000000E+00  8.32500000E-01
      3.50000000E+00  7.50000000E+00  8.22500000E-01
      4.00000000E+00  7.50000000E+00  8.12500000E-01
      4.50000000E+00  7.50000000E+00  8.02500000E-01
      5.00000000E+00  7.50000000E+00  7.92500000E-01
      5.50000000E+00  7.50000000E+00  7.82500000E-01
      6.00000000E+00  7.50000000E+00  7.72500000E-01
      6.50000000E+00  7.50000000E+00  7.62500000E-01
      7.00000000E+00  7.50000000E+00  7.52500000E-01
      7.50000000E+00  7.50000000E+00  7.42500000E-01
      8.00000000E+00  7.50000000E+00  7.32500000E-01
      8.50000000E+00  7.50000000E+00  7.22500000E-01
      9.00000000E+00  7.50000000E+00  7.12500000E-01
      9.50000000E+00  7.50000000E+00  7.02500000E-01
      1.00000000E+01  7.50000000E+00  7.01666667E-01
      0.00000000E+00  7.00000000E+00  8.58333333E-01
      5.00000000E-01  7.00000000E+00  8.57500000E-01
      1.00000000E+00  7.00000000E+00  8.47500000E-01
      1.50000000E+00  7.00000000E+00  8.37500000E-01
      2.00000000E+00  7.00000000E+00  8.27500000E-01
      2.50000000E+00  7.00000000E+00  8.17500000E-01
      3.00000000E+00  7.00000000E+00  8.07500000E-01
      3.50000000E+00  7.00000000E+00  7.97500000E-01
      4.00000000E+00  7.00000000E+00  7.87500000E-01
      4.50000000E+00  7.00000000E+00  7.77500000E-01
      5.00000000E+00  7.00000000E+00  7.67500000E-01
      5.50000000E+00  7.00000000E+00  7.57500000E-01
      6.00000000E+00  7.00000000E+00  7.47500000E-01
      6.50000000E+00  7.00000000E+00  7.37500000E-01
      7.00000000E+00  7.00000000E+00  7.27500000E-01
      7.50000000E+00  7.00000000E+00  7.17500000E-01
      8.00000000E+00  7.00000000E+00  7.07500000E-01
      8.50000000E+00  7.00000000E+00  6.97500000E-01
      9.00000000E+00  7.00000000E+00  6.87500000E-01
      9.50000000E+00  7.00000000E+00  6.77500000E-01
      1.00000000E+01  7.00000000E+00  6.76666667E-01
      0.00000000E+00  6.50000000E+00  8.33333333E-01
      5.00000000E-01  6.50000000E+00  8.32500000E-01
      1.00000000E+00  6.50000000E+00  8.22500000E-01
      1.50000000E+00  6.50000000E+00  8.12500000E-01
      2.00000000E+00  6.50000000E+00  8.02500000E-01
      2.50000000E+00  6.50000000E+00  7.92500000E-01
      3.00000000E+00  6.50000000E+00  7.82500000E-01
      3.50000000E+00  6.50000000E+00  7.72500000E-01
      4.00000000E+00  6.50000000E+00  7.62500000E-01
      4.50000000E+00  6.50000000E+00  7.52500000E-01
      5.00000000E+00  6.50000000E+00  7.42500000E-01
      5.50000000E+00  6.50000000E+00  7.32500000E-01
      6.00000000E+00  6.50000000E+00  7.22500000E-01
      6.50000000E+00  6.50000000E+00  7.12500000E-01
      7.00000000E+00  6.50000000E+00  7.02500000E-01
      7.50000000E+00  6.50000000E+00  6.92500000E-01
      8.00000000E+00  6.50000000E+00  6.82500000E-01
      8.50000000E+00  6.50000000E+00  6.72500000E-01
      9.00000000E+00  6.50000000E+00  6.62500000E-01
      9.50000000E+00  6.50000000E+00  6.52500000E-01
      1.00000000E+01  6.50000000E+00  6.51666667E-01
      0.00000000E+00  6.00000000E+00  8.08333333E-01
      5.00000000E-01  6.00000000E+00  8.07500000E-01
      1.00000000E+00  6.00000000E+00  7.97500000E-01
      1.50000000E+00  6.00000000E+00  7.87500000E-01
      2.00000000E+00  6.00000000E+00  7.77500000E-01
      2.50000000E+00  6.00000000E+00  7.67500000E-01
      3.00000000E+00  6.00000000E+00  7.57500000E-01
      3.50000000E+00  6.00000000E+00  7.47500000E-01
      4.00000000E+00  6.00000000E+00  7.37500000E-01
      4.50000000E+00  6.00000000E+00  7.27500000E-01
      5.00000000E+00  6.00000000E+00  7.17500000E-01
      5.50000000E+00  6.00000000E+00  7.07500000E-01
      6.00000000E+00  6.00000000E+00  6.97500000E-01
      6.50000000E+00  6.00000000E+00  6.87500000E-01
      7.00000000E+00  6.00000000E+00  6.77500000E-01
      7.50000000E+00  6.00000000E+00  6.67500000E-01
      8.00000000E+00  6.00000000E+00  6.57500000E-01
[...]
POINT_DATA     7056
SCALARS pressure float
LOOKUP_TABLE default
 -0.11444179139617862     
 -0.11337971744421203     
 -0.11296660110156496     
 -0.11268151450002969     
 -0.11239646902909495     
 -0.11212268851415595     
 -0.11187254792377214     
 -0.11162348246623779     
 -0.11137659111002414     
 -0.11112703719030305     
 -0.11086802400186611     
 -0.11058368965020160     
 -0.11026583713295256     
 -0.10989802920060285     
 -0.10945151696297178     
 -0.10888902865167374     
 -0.10814812619785441     
 -0.10712881120547255     
 -0.10586432725405100     
 -0.10260361773175820     
 -0.10183769673382463     
 -0.11258126045528302     
 -0.11207791282519641     
 -0.11092886610871462     
 -0.11078894052056408     
 -0.11051356360940154     
 -0.11025627826019976     
 -0.11000622670806837     
 -0.10976008679235572     
 -0.10950599199868029     
 -0.10924595184623068     
 -0.10896207464369663     
 -0.10864603911854304     
 -0.10827864389062500     
 -0.10783433371216843     
 -0.10727796273981625     
 -0.10655904198651947     
 -0.10559906833430931     
 -0.10427737779954006     
 -0.10251379523282685     
  -9.8813793810782660E-002
  -9.8848458478411200E-002
 -0.11091900130081810     
 -0.11021859881290495     
 -0.10853112427860798     
 -0.10816880251258867     
 -0.10761179184910456     
 -0.10710595820079992     
 -0.10662281298549606     
 -0.10615097749630012     
 -0.10567745031588681     
 -0.10518688686354412     
 -0.10466147333144842     
 -0.10407749285077818     
 -0.10340510004727567     
 -0.10260071462518162     
 -0.10160604173018187     
 -0.10033602251922588     
  -9.8674517653108654E-002
  -9.6470365780942313E-002
  -9.3661584267536485E-002
  -8.9061430499150121E-002
  -8.8582050230819567E-002
 -0.10930905245681520     
 -0.10908384013782456     
 -0.10703159816508946     
 -0.10639364807645178     
 -0.10557972957686930     
 -0.10481638650149971     
 -0.10406890484886031     
 -0.10332335388888732     
 -0.10256162327885812     
 -0.10176102412761476     
 -0.10089354311086499     
  -9.9921963416912535E-002
  -9.8797730733479555E-002
  -9.7457788115681968E-002
  -9.5827662801324903E-002
  -9.3836384634443867E-002
  -9.1402209826342798E-002
  -8.8378994901942121E-002
  -8.4591051799643324E-002
  -7.8789291664671648E-002
  -7.8348831902698132E-002
 -0.10751754323751600     
 -0.10755786905281750     
 -0.10510297164657745     
 -0.10412838929308632     
 -0.10299763456963028     
 -0.10190383609966433     
 -0.10081735131521788     
  -9.9716587850368008E-002
  -9.8576379423558985E-002
  -9.7365181044749768E-002
  -9.6048948214496888E-002
  -9.4588770426361629E-002
  -9.2951380957231405E-002
  -9.1083455417768688E-002
  -8.8898406040342340E-002
  -8.6282773971835966E-002
  -8.3054914684193140E-002
  -7.8893485864365384E-002
  -7.3847605324717069E-002
  -6.7390214749691854E-002
  -6.7027237557358163E-002
 -0.10555220699378838     
 -0.10575105747553881     
 -0.10289649860391764     
 -0.10150111130351630     
  -9.9966907047733616E-002
  -9.8450808554085861E-002
  -9.6922859098160258E-002
  -9.5363729820535051E-002
  -9.3759757638286992E-002
  -9.2100861502097384E-002
  -9.0352288311349185E-002
  -8.8456751626671784E-002
  -8.6341577313924361E-002
  -8.3902227432652868E-002
  -8.0965995430889809E-002
  -7.7384274172658404E-002
  -7.3253964461524962E-002
  -6.8498052820239852E-002
  -6.3058786903509370E-002
  -5.6199933572117181E-002
  -5.5825544765434783E-002
 -0.10332201317046984     
 -0.10358064573576750     
 -0.10028522030035179     
  -9.8368294305588189E-002
  -9.6323690078607999E-002
  -9.4292795031270166E-002
  -9.2283736371101446E-002
  -9.0291750427540937E-002
  -8.8275879054106360E-002
  -8.6183539702364448E-002
  -8.3943279327021919E-002
  -8.1446520438283349E-002
  -7.8571961562706752E-002
  -7.5378647840357374E-002
  -7.1855099116580071E-002
  -6.7911322214412179E-002
  -6.3494836743672581E-002
  -5.8485774413527071E-002
  -5.1940312786763136E-002
  -4.4212787304874268E-002
  -4.3814574425380344E-002
 -0.10068700333104233     
 -0.10093884945295385     
  -9.7119869663443881E-002
  -9.4577670982044407E-002
  -9.1999525975743221E-002
  -8.9505837104285155E-002
  -8.7049414284255597E-002
  -8.4572234454277070E-002
  -8.1994362472500665E-002
  -7.9215417043535671E-002
  -7.6279064759826154E-002
  -7.3240125192807121E-002
  -7.0035751232550861E-002
  -6.6597584984438116E-002
  -6.2874730368485454E-002
  -5.8744331570212700E-002
  -5.3491999153534052E-002
  -4.7527895357991803E-002
  -4.0837840943305108E-002
  -3.3317275408981481E-002
  -3.3026797372738260E-002
  -9.7450562441754721E-002
  -9.7652938311426643E-002
  -9.3272485450962797E-002
  -9.0160782600667913E-002
  -8.7077846597142960E-002
  -8.4030426898731012E-002
  -8.0914002956802761E-002
  -7.7676825663856475E-002
  -7.4482822531762458E-002
  -7.1335319627617730E-002
  -6.8178345848763103E-002
  -6.4951856570617819E-002
  -6.1611604434212944E-002
  -5.7948901123343576E-002
  -5.3475814318917542E-002
  -4.8587369524754558E-002
  -4.3219978157938051E-002
  -3.7426967270429788E-002
  -3.0595638798900083E-002
  -2.2615736320302608E-002
  -2.2312102485071476E-002
  -9.3502221104039551E-002
  -9.3620868157181084E-002
  -8.8786545421393040E-002
  -8.5037214889814444E-002
  -8.1219086587147452E-002
  -7.7318175698998681E-002
  -7.3590818245903203E-002
  -7.0056371528802966E-002
  -6.6664514163575411E-002
  -6.3362892254174047E-002
  -6.0093948637606025E-002
  -5.6453290360735479E-002
  -5.2430725544383508E-002
  -4.8228583331553769E-002
  -4.3762877182747816E-002
  -3.9015794057480659E-002
  -3.3853355161486895E-002
  -2.7670329066331382E-002
  -2.0756231908235705E-002
  -1.3128104292922211E-002
  -1.3000903562636652E-002
  -8.8856356650076920E-002
  -8.8846754148372314E-002
  -8.3408001117425218E-002
  -7.8661845293172841E-002
  -7.4079405410743066E-002
  -6.9837796187680309E-002
  -6.5901416360567955E-002
  -6.2225838426325474E-002
  -5.8685827621578875E-002
  -5.4777083896069008E-002
  -5.0869220075441104E-002
  -4.6975596792944226E-002
  -4.3022308712000544E-002
  -3.8998972489270319E-002
  -3.4825371540582649E-002
  -2.9901639284126483E-002
  -2.4476930458003129E-002
  -1.8527374186033195E-002
  -1.1625143577074795E-002
  -4.7156968198477749E-003
  -4.8492598247613363E-003
  -8.3087011131649791E-002
  -8.2954122748670339E-002
  -7.6557067646000884E-002
  -7.1228235498902059E-002
  -6.6374875296824967E-002
  -6.1975286587260044E-002
  -5.7814606891384575E-002
  -5.3425402510535576E-002
  -4.9289994253726585E-002
  -4.5346906580241021E-002
  -4.1544596420500117E-002
  -3.7893747334076640E-002
  -3.4162197354013539E-002
  -3.0037865703166952E-002
  -2.5681986923344540E-002
  -2.1007987339718485E-002
  -1.5907120618083692E-002
  -9.6380223573050965E-003
   6.3633001559439893E-005
   2.9114333787156037E-004
   2.4167632218500071E-004
  -7.5589060666215055E-002
  -7.5410398246645027E-002
  -6.8743623157073871E-002
  -6.3162998045185881E-002
  -5.8117128735177478E-002
  -5.2928612460248887E-002
  -4.8173124253172432E-002
  -4.3811662572173511E-002
  -3.9842297306484600E-002
  -3.6257061027219276E-002
  -3.2477264898088443E-002
  -2.8713797712073372E-002
  -2.4944069455905014E-002
  -2.1115966722930066E-002
  -1.7240885784864036E-002
  -1.2908357575165359E-002
  -7.8098698382124626E-003
   1.8858255723823107E-005
   4.0593150277620153E-004
   8.2365843232202378E-004
   9.1234285318780135E-004
  -6.7200247848816799E-002
  -6.6934816808825973E-002
  -6.0203396837869294E-002
  -5.3895434002259081E-002
  -4.8091150521974622E-002
  -4.2904167710212160E-002
  -3.8378067124913567E-002
  -3.4307003383358514E-002
  -3.0308013255379278E-002
  -2.6559953342242600E-002
  -2.2960331767404040E-002
  -1.9543384570343301E-002
  -1.6276981681676909E-002
  -1.2809851382709634E-002
  -9.0305141137141352E-003
  -5.4871228471262915E-003
   8.0399667265438460E-005
   3.3321254612586019E-004
   8.5575692154352730E-004
   1.4127540837039769E-003
   1.4473464568776353E-003
  -5.7750986710275044E-002
  -5.7482802386121128E-002
  -4.9799806113073004E-002
  -4.3224080346443240E-002
  -3.7658414905263046E-002
  -3.2721143180735636E-002
  -2.8132594357526311E-002
  -2.3951689732638847E-002
  -2.0323616644101278E-002
  -1.7106456295822459E-002
  -1.3878345233809038E-002
  -1.0554394002476155E-002
  -7.8296459692666787E-003
  -5.0103969492590562E-003
   5.1990862014524142E-005
   2.2136653615518857E-004
   4.5352376218365609E-004
   8.1601722036542007E-004
   1.4048995470862852E-003
   1.8381805500136896E-003
   1.8695019713769470E-003
  -4.6099288033911855E-002
  -4.5842208493557884E-002
  -3.8373522204928193E-002
  -3.2035854171241045E-002
  -2.6405375076002446E-002
  -2.1643402532380500E-002
  -1.7579451155853954E-002
  -1.3532206926552711E-002
  -1.0449596704055548E-002
  -7.6124530626515601E-003
  -5.0438821437878249E-003
   3.2611857636230524E-005
   1.6549626568270452E-004
   3.0939283267287067E-004
   4.7465160778525581E-004
   7.2378296032693838E-004
   1.0355284523885988E-003
   1.3726703478856147E-003
   1.9086789574732789E-003
   2.2223139055147882E-003
   2.1566767911007541E-003
  -3.3542482963179077E-002
  -3.3437608689865443E-002
  -2.5979697596189285E-002
  -1.9754100834051349E-002
  -1.4525496101796629E-002
  -1.0600339159048297E-002
  -7.0246283432818558E-003
  -1.4441440190054839E-004
   1.3102768838294248E-004
   2.7854453681335812E-004
   4.0809589669117246E-004
   5.4466420727846353E-004
   7.3470220977366887E-004
   9.6213448055795759E-004
   1.1811748711284646E-003
   1.4013758352091977E-003
   1.6461606849915702E-003
   1.9491174297889345E-003
   2.4777378569491178E-003
   2.6492999598948185E-003
   2.4411294699822482E-003
  -1.8971834623883382E-002
  -1.9103024538159600E-002
  -1.2753785647101815E-002
  -6.4302744143939564E-003
   1.0585245834841872E-004
   3.1331332768423181E-004
   4.9614740687935308E-004
   6.5372892477101314E-004
   8.3486287770298746E-004
   1.0680348776331153E-003
   1.2694980969752843E-003
   1.4548301314109503E-003
   1.6213807766528197E-003
   1.7810224905596133E-003
   1.9505640477986009E-003
   2.1416895083179923E-003
   2.3721325149329174E-003
   2.6629348193579795E-003
   3.1946497607617157E-003
   3.1739004092700509E-003
   2.7794598705521132E-003
   2.0300830046885834E-005
   1.4731128473829293E-004
   5.2437801390735404E-004
   8.5521161252782982E-004
   1.1408014270404170E-003
   1.4771535289660226E-003
   1.7801533731409216E-003
   2.0256392090727770E-003
   2.2222230383292167E-003
   2.3829607694739884E-003
   2.5293613327018998E-003
   2.6698608698160833E-003
   2.8106015421417805E-003
   2.9576813477517052E-003
   3.1181814516335130E-003
   3.3025284978164134E-003
   3.5285747911079032E-003
   3.8184513972140391E-003
   4.3516160359034989E-003
   3.9755075780315650E-003
   3.2468699021501613E-003
   2.4440311825315855E-003
   2.2138226787976525E-003
   3.0802394703372685E-003
   3.8616245326356952E-003
   4.1430218516301381E-003
   4.1792189216656398E-003
   4.1512006419609573E-003
   4.1183319681048370E-003
   4.0971581516411138E-003
   4.0925132569659831E-003
   4.1055414545224135E-003
   4.1363193281255340E-003
   4.1857135289303559E-003
   4.2556112635213682E-003
   4.3488077815261438E-003
   4.4703292317573046E-003
   4.6301638400189108E-003
   4.8452421259737120E-003
   5.2074988352244968E-003
   5.2734732434086889E-003
   4.3550181226363963E-003
   3.6247798741855949E-003
   3.9172915495941079E-003
   4.9291197709631059E-003
   5.9725742682592209E-003
   6.3202186365389637E-003
   6.1060974137859842E-003
   5.8026172838736767E-003
   5.5195819477527825E-003
   5.2854640206636098E-003
   5.1040045010650225E-003
   4.9713432632259545E-003
   4.8824397121929068E-003
   4.8325035974097286E-003
   4.8181049878880293E-003
   4.8374735686521645E-003
   4.8903409948972869E-003
   4.9793349197187475E-003
   5.1126186641275101E-003
   5.3256854102999279E-003
   5.5915851553751091E-003
   5.7235575326593313E-003
 -0.10867398016769858     
 -0.10768422180934158     
 -0.10727110167176693     
 -0.10698641503653571     
 -0.10670118662057547     
 -0.10642689495344453     
 -0.10617590445384183     
 -0.10592571597179676     
 -0.10567740872686246     
 -0.10542607881574607     
 -0.10516486329204448     
 -0.10487785867561709     
 -0.10455679542209442     
 -0.10418525148159680     
 -0.10373452859815174     
 -0.10316719236823386     
 -0.10242063745255216     
 -0.10139490241379387     
 -0.10012177466901637     
  -9.6855754627510282E-002
  -9.6211865609305197E-002
 -0.10689390207381261     
 -0.10652310624264170     
 -0.10537057086871002     
 -0.10522989143415128     
 -0.10495299567751423     
 -0.10469390858576189     
 -0.10444175966180869     
 -0.10419321907484765     
 -0.10393642749698326     
 -0.10367330409692144     
 -0.10338600717668453     
 -0.10306620595692921     
 -0.10269469281530207     
 -0.10224570637005127     
 -0.10168380740297722     
 -0.10095827860426444     
  -9.9990629754937110E-002
  -9.8660488000841998E-002
  -9.6886812067025388E-002
  -9.3182175055570651E-002
  -9.3333498893194575E-002
 -0.10523403399539984     
 -0.10466358656396021     
 -0.10297292980061870     
 -0.10260798141164888     
 -0.10204771693537293     
 -0.10153821107511686     
 -0.10105126859874504     
 -0.10057565551763238     
 -0.10009835870899753     
  -9.9603900144743657E-002
  -9.9074325066103724E-002
  -9.8485802605630474E-002
  -9.7808398290300386E-002
  -9.6998506623787673E-002
  -9.5997815153723909E-002
  -9.4721204928456343E-002
  -9.3051957271949426E-002
  -9.0835631017164714E-002
  -8.8003735080177878E-002
  -8.3386377149955976E-002
  -8.3014926654507132E-002
 -0.10361962873161178     
 -0.10352221084168407     
 -0.10146521213401773     
 -0.10082265079139424     
 -0.10000478577354421     
  -9.9237642454029246E-002
  -9.8486443175470340E-002
  -9.7737060076109605E-002
  -9.6971294577251996E-002
  -9.6166418192206116E-002
  -9.5294414118642604E-002
  -9.4317956355846791E-002
  -9.3188237609184932E-002
  -9.1841389055627290E-002
  -9.0200621778367573E-002
  -8.8192006304239887E-002
  -8.5737751921896768E-002
  -8.2693889572405699E-002
  -7.8887763270061362E-002
  -7.3086990775203503E-002
  -7.2741761437542005E-002
 -0.10181917804951469     
 -0.10198696296212086     
  -9.9526447859786357E-002
  -9.8547631172723138E-002
  -9.7413366638842286E-002
  -9.6315802387446539E-002
  -9.5225482227978192E-002
  -9.4120747492183618E-002
  -9.2976230156130824E-002
  -9.1759928479723821E-002
  -9.0436703436926391E-002
  -8.8965734219409176E-002
  -8.7313099423267440E-002
  -8.5428574581654551E-002
  -8.3226181749283965E-002
  -8.0593601575229809E-002
  -7.7354062265749146E-002
  -7.3179824328901924E-002
  -6.8095406172490283E-002
  -6.1607878425221523E-002
  -6.1312182047051231E-002
  -9.9844310683216225E-002
 -0.10017040423044435     
  -9.7310430393708652E-002
  -9.5911014461595515E-002
  -9.4373417966180831E-002
  -9.2853519918930261E-002
  -9.1320873081869508E-002
  -8.9754759033061488E-002
  -8.8139587807438802E-002
  -8.6466095265211096E-002
  -8.4702626520516772E-002
  -8.2792070176012561E-002
  -8.0662396137374234E-002
  -7.8211450074012992E-002
  -7.5268397849206123E-002
  -7.1663712019583090E-002
  -6.7500564998141444E-002
  -6.2709373713004279E-002
  -5.7229048979834510E-002
  -5.0371631537175957E-002
  -5.0053769002600168E-002
  -9.7605383461890780E-002
  -9.7989117183955157E-002
  -9.4689344778040863E-002
  -9.2768444834550656E-002
  -9.0718921673770922E-002
  -8.8678615359808532E-002
  -8.6654711955788805E-002
  -8.4647411092607344E-002
  -8.2616974285705844E-002
  -8.0511304712320819E-002
  -7.8260448484967202E-002
  -7.5757109835707423E-002
  -7.2869091283652265E-002
  -6.9647045175598304E-002
  -6.6094386898856577E-002
  -6.2119523815663345E-002
  -5.7669137748786105E-002
  -5.2640313185628319E-002
  -4.6070650679413336E-002
  -3.8320913497096189E-002
  -3.7953500541481520E-002
  -9.4962045917018442E-002
  -9.5335208457014112E-002
  -9.1512363170271629E-002
  -8.8960119690678380E-002
  -8.6365225367920379E-002
  -8.3854947234104610E-002
  -8.1383861945709471E-002
  -7.8895017184054714E-002
  -7.6310170237942815E-002
  -7.3523225067897102E-002
  -7.0561337807412652E-002
  -6.7495026049420884E-002
  -6.4263633649544835E-002
  -6.0797364795647180E-002
  -5.7045521036833746E-002
  -5.2898077341417868E-002
  -4.7629236049318117E-002
  -4.1636042702475881E-002
  -3.4916278992795279E-002
  -2.7384463129312395E-002
  -2.7113159117046787E-002
  -9.1715227825914514E-002
  -9.2033602686119001E-002
  -8.7638115711339087E-002
  -8.4506534032643077E-002
  -8.1407411097550897E-002
  -7.8348487670066344E-002
  -7.5227024061882919E-002
  -7.1972895252824812E-002
  -6.8751158361382861E-002
  -6.5576448905791229E-002
  -6.2392945380959013E-002
  -5.9140277499079616E-002
  -5.5775083549230463E-002
  -5.2106932987112102E-002
  -4.7613586117805272E-002
  -4.2700380880404412E-002
  -3.7308329343199262E-002
  -3.1488456906868370E-002
  -2.4643827074325889E-002
  -1.6652786399700380E-002
  -1.6357070569485876E-002
  -8.7743078188806306E-002
  -8.7966669014119217E-002
  -8.3113935442176712E-002
  -7.9349124464354076E-002
  -7.5525812908917564E-002
  -7.1605741655413668E-002
  -6.7848797948787981E-002
  -6.4285803031967154E-002
  -6.0867152110808974E-002
  -5.7539518243194546E-002
  -5.4250273680488223E-002
  -5.0608547277882374E-002
  -4.6563397586143945E-002
  -4.2339942616721325E-002
  -3.7853122505213541E-002
  -3.3084146779753652E-002
  -2.7909070656512595E-002
  -2.1710031570481222E-002
  -1.4783312715263766E-002
  -7.1492407736721353E-003
  -7.0253548139535783E-003
  -8.3069622536514412E-002
  -8.3151946562268056E-002
  -7.7704212904525630E-002
  -7.2946736100932733E-002
  -6.8332593839702083E-002
  -6.4059808031900700E-002
  -6.0094757111502736E-002
  -5.6392460392321646E-002
  -5.2840654422252248E-002
  -4.8922479697487149E-002
  -4.4993195620661813E-002
  -4.1080248068164966E-002
  -3.7108522187671501E-002
  -3.3067220541603895E-002
  -2.8884041121592183E-002
  -2.3946483853605666E-002
  -1.8509121200314820E-002
  -1.2544417067692845E-002
  -5.6395313581269080E-003
   1.2650598083470998E-003
   1.1323292219238847E-003
  -7.7280877176286095E-002
  -7.7229840979450973E-002
  -7.0811743562245719E-002
  -6.5448888944072622E-002
  -6.0563618014996524E-002
  -5.6134664822745733E-002
  -5.1969425003646499E-002
  -4.7560676790561508E-002
  -4.3404862619815292E-002
  -3.9443495809457538E-002
  -3.5623558616123804E-002
  -3.1956512860999264E-002
  -2.8218582182749051E-002
  -2.4083382671218199E-002
  -1.9717405206960165E-002
  -1.5033888083507531E-002
  -9.9235593088604062E-003
  -3.6514913811262093E-003
   5.9108572007043189E-003
   6.3197382932670262E-003
   6.2448037796349540E-003
  -6.9745236980123151E-002
  -6.9631240581462070E-002
  -6.2933795364811723E-002
  -5.7319711294900648E-002
  -5.2262774733942599E-002
  -4.7054448488335995E-002
  -4.2278575694856879E-002
  -3.7898785829642831E-002
  -3.3912448715097188E-002
  -3.0312718742505049E-002
  -2.6528031899551469E-002
  -2.2755441912309205E-002
  -1.8978059956951288E-002
  -1.5142611229535356E-002
  -1.1262156707416777E-002
  -6.9238024012799135E-003
  -1.8232512423822205E-003
   5.8983906723348569E-003
   6.4064690049248632E-003
   6.9235460493645082E-003
   6.9816718912922649E-003
  -6.1312943737404715E-002
  -6.1091660237363808E-002
  -5.4332665138001959E-002
  -4.8013852043231928E-002
  -4.2188651552261855E-002
  -3.6982702488534781E-002
  -3.2439071962192700E-002
  -2.8360731152013024E-002
  -2.4352145224263367E-002
  -2.0596563255068027E-002
  -1.6989961676381969E-002
  -1.3566824102916559E-002
  -1.0297060005105628E-002
  -6.8251554228075158E-003
  -3.0436907698947989E-003
   4.9958169643561114E-004
   6.0013606280510815E-003
   6.3414145816257416E-003
   6.9094664777504316E-003
   7.5558490457485195E-003
   7.5601162872728578E-003
  -5.1834043663785113E-002
  -5.1596957008519455E-002
  -4.3892212447379085E-002