# vtk DataFile Version 2.0
3D Unstructured Grid of Linear Triangles
ASCII
DATASET UNSTRUCTURED_GRID
FIELD FieldData  1
TIME 1 1 double
        7205.43531
POINTS     7056 float
      0.00000000E+00  1.00000000E+01  1.00000000E+00
      5.00000000E-01  1.00000000E+01  9.93333333E-01
      1.00000000E+00  1.00000000E+01  9.83333333E-01
      1.50000000E+00  1.00000000E+01  9.73333333E-01
      2.00000000E+00  1.00000000E+01  9.63333333E-01
      2.50000000E+00  1.00000000E+01  9.53333333E-01
      3.00000000E+00  1.00000000E+01  9.43333333E-01
      3.50000000E+00  1.00000000E+01  9.33333333E-01
      4.00000000E+00  1.00000000E+01  9.23333333E-01
      4.50000000E+00  1.00000000E+01  9.13333333E-01
      5.00000000E+00  1.00000000E+01  9.03333333E-01
      5.50000000E+00  1.00000000E+01  8.93333333E-01
      6.00000000E+00  1.00000000E+01  8.83333333E-01
      6.50000000E+00  1.00000000E+01  8.73333333E-01
      7.00000000E+00  1.00000000E+01  8.63333333E-01
      7.50000000E+00  1.00000000E+01  8.53333333E-01
      8.00000000E+00  1.00000000E+01  8.43333333E-01
      8.50000000E+00  1.00000000E+01  8.33333333E-01
      9.00000000E+00  1.00000000E+01  8.23333333E-01
      9.50000000E+00  1.00000000E+01  8.13333333E-01
      1.00000000E+01  1.00000000E+01  8.10000000E-01
      0.00000000E+00  9.50000000E+00  9.83333333E-01
      5.00000000E-01  9.50000000E+00  9.82500000E-01
      1.00000000E+00  9.50000000E+00  9.72500000E-01
      1.50000000E+00  9.50000000E+00  9.62500000E-01
      2.00000000E+00  9.50000000E+00  9.52500000E-01
      2.50000000E+00  9.50000000E+00  9.42500000E-01
      3.00000000E+00  9.50000000E+00  9.32500000E-01
      3.50000000E+00  9.50000000E+00  9.22500000E-01
      4.00000000E+00  9.50000000E+00  9.12500000E-01
      4.50000000E+00  9.50000000E+00  9.02500000E-01
      5.00000000E+00  9.50000000E+00  8.92500000E-01
      5.50000000E+00  9.50000000E+00  8.82500000E-01
      6.00000000E+00  9.50000000E+00  8.72500000E-01
      6.50000000E+00  9.50000000E+00  8.62500000E-01
      7.00000000E+00  9.50000000E+00  8.52500000E-01
      7.50000000E+00  9.50000000E+00  8.42500000E-01
      8.00000000E+00  9.50000000E+00  8.32500000E-01
      8.50000000E+00  9.50000000E+00  8.22500000E-01
      9.00000000E+00  9.50000000E+00  8.12500000E-01
      9.50000000E+00  9.50000000E+00  8.02500000E-01
      1.00000000E+01  9.50000000E+00  8.01666667E-01
      0.00000000E+00  9.00000000E+00  9.58333333E-01
      5.00000000E-01  9.00000000E+00  9.57500000E-01
      1.00000000E+00  9.00000000E+00  9.47500000E-01
      1.50000000E+00  9.00000000E+00  9.37500000E-01
      2.00000000E+00  9.00000000E+00  9.27500000E-01
      2.50000000E+00  9.00000000E+00  9.17500000E-01
      3.00000000E+00  9.00000000E+00  9.07500000E-01
      3.50000000E+00  9.00000000E+00  8.97500000E-01
      4.00000000E+00  9.00000000E+00  8.87500000E-01
      4.50000000E+00  9.00000000E+00  8.77500000E-01
      5.00000000E+00  9.00000000E+00  8.67500000E-01
      5.50000000E+00  9.00000000E+00  8.57500000E-01
      6.00000000E+00  9.00000000E+00  8.47500000E-01
      6.50000000E+00  9.00000000E+00  8.37500000E-01
      7.00000000E+00  9.00000000E+00  8.27500000E-01
      7.50000000E+00  9.00000000E+00  8.17500000E-01
      8.00000000E+00  9.00000000E+00  8.07500000E-01
      8.50000000E+00  9.00000000E+00  7.97500000E-01
      9.00000000E+00  9.00000000E+00  7.87500000E-01
      9.50000000E+00  9.00000000E+00  7.77500000E-01
      1.00000000E+01  9.00000000E+00  7.76666667E-01
      0.00000000E+00  8.50000000E+00  9.33333333E-01
      5.00000000E-01  8.50000000E+00  9.32500000E-01
      1.00000000E+00  8.50000000E+00  9.22500000E-01
      1.50000000E+00  8.50000000E+00  9.12500000E-01
      2.00000000E+00  8.50000000E+00  9.02500000E-01
      2.50000000E+00  8.50000000E+00  8.92500000E-01
      3.00000000E+00  8.50000000E+00  8.82500000E-01
      3.50000000E+00  8.50000000E+00  8.72500000E-01
      4.00000000E+00  8.50000000E+00  8.62500000E-01
      4.50000000E+00  8.50000000E+00  8.52500000E-01
      5.00000000E+00  8.50000000E+00  8.42500000E-01
      5.50000000E+00  8.50000000E+00  8.32500000E-01
      6.00000000E+00  8.50000000E+00  8.22500000E-01
      6.50000000E+00  8.50000000E+00  8.12500000E-01
      7.00000000E+00  8.50000000E+00  8.02500000E-01
      7.50000000E+00  8.50000000E+00  7.92500000E-01
      8.00000000E+00  8.50000000E+00  7.82500000E-01
      8.50000000E+00  8.50000000E+00  7.72500000E-01
      9.00000000E+00  8.50000000E+00  7.62500000E-01
      9.50000000E+00  8.50000000E+00  7.52500000E-01
      1.00000000E+01  8.50000000E+00  7.51666667E-01
      0.00000000E+00  8.00000000E+00  9.08333333E-01
      5.00000000E-01  8.00000000E+00  9.07500000E-01
      1.00000000E+00  8.00000000E+00  8.97500000E-01
      1.50000000E+00  8.00000000E+00  8.87500000E-01
      2.00000000E+00  8.00000000E+00  8.77500000E-01
      2.50000000E+00  8.00000000E+00  8.67500000E-01
      3.00000000E+00  8.00000000E+00  8.57500000E-01
      3.50000000E+00  8.00000000E+00  8.47500000E-01
      4.00000000E+00  8.00000000E+00  8.37500000E-01
      4.50000000E+00  8.00000000E+00  8.27500000E-01
      5.00000000E+00  8.00000000E+00  8.17500000E-01
      5.50000000E+00  8.00000000E+00  8.07500000E-01
      6.00000000E+00  8.00000000E+00  7.97500000E-01
      6.50000000E+00  8.00000000E+00  7.87500000E-01
      7.00000000E+00  8.00000000E+00  7.77500000E-01
      7.50000000E+00  8.00000000E+00  7.67500000E-01
      8.00000000E+00  8.00000000E+00  7.57500000E-01
      8.50000000E+00  8.00000000E+00  7.47500000E-01
      9.00000000E+00  8.00000000E+00  7.37500000E-01
      9.50000000E+00  8.00000000E+00  7.27500000E-01
      1.00000000E+01  8.00000000E+00  7.26666667E-01
      0.00000000E+00  7.50000000E+00  8.83333333E-01
      5.00000000E-01  7.50000000E+00  8.82500000E-01
      1.00000000E+00  7.50000000E+00  8.72500000E-01
      1.50000000E+00  7.50000000E+00  8.62500000E-01
      2.00000000E+00  7.50000000E+00  8.52500000E-01
      2.50000000E+00  7.50000000E+00  8.42500000E-01
      3.00000000E+00  7.50000000E+00  8.32500000E-01
      3.50000000E+00  7.50000000E+00  8.22500000E-01
      4.00000000E+00  7.50000000E+00  8.12500000E-01
      4.50000000E+00  7.50000000E+00  8.02500000E-01
      5.00000000E+00  7.50000000E+00  7.92500000E-01
      5.50000000E+00  7.50000000E+00  7.82500000E-01
      6.00000000E+00  7.50000000E+00  7.72500000E-01
      6.50000000E+00  7.50000000E+00  7.62500000E-01
      7.00000000E+00  7.50000000E+00  7.52500000E-01
      7.50000000E+00  7.50000000E+00  7.42500000E-01
      8.00000000E+00  7.50000000E+00  7.32500000E-01
      8.50000000E+00  7.50000000E+00  7.22500000E-01
      9.00000000E+00  7.50000000E+00  7.12500000E-01
      9.50000000E+00  7.50000000E+00  7.02500000E-01
      1.00000000E+01  7.50000000E+00  7.01666667E-01
      0.00000000E+00  7.00000000E+00  8.58333333E-01
      5.00000000E-01  7.00000000E+00  8.57500000E-01
      1.00000000E+00  7.00000000E+00  8.47500000E-01
      1.50000000E+00  7.00000000E+00  8.37500000E-01
      2.00000000E+00  7.00000000E+00  8.27500000E-01
      2.50000000E+00  7.00000000E+00  8.17500000E-01
      3.00000000E+00  7.00000000E+00  8.07500000E-01
      3.50000000E+00  7.00000000E+00  7.97500000E-01
      4.00000000E+00  7.00000000E+00  7.87500000E-01
      4.50000000E+00  7.00000000E+00  7.77500000E-01
      5.00000000E+00  7.00000000E+00  7.67500000E-01
      5.50000000E+00  7.00000000E+00  7.57500000E-01
      6.00000000E+00  7.00000000E+00  7.47500000E-01
      6.50000000E+00  7.00000000E+00  7.37500000E-01
      7.00000000E+00  7.00000000E+00  7.27500000E-01
      7.50000000E+00  7.00000000E+00  7.17500000E-01
      8.00000000E+00  7.00000000E+00  7.07500000E-01
      8.50000000E+00  7.00000000E+00  6.97500000E-01
      9.00000000E+00  7.00000000E+00  6.87500000E-01
      9.50000000E+00  7.00000000E+00  6.77500000E-01
      1.00000000E+01  7.00000000E+00  6.76666667E-01
      0.00000000E+00  6.50000000E+00  8.33333333E-01
      5.00000000E-01  6.50000000E+00  8.32500000E-01
      1.00000000E+00  6.50000000E+00  8.22500000E-01
      1.50000000E+00  6.50000000E+00  8.12500000E-01
      2.00000000E+00  6.50000000E+00  8.02500000E-01
      2.50000000E+00  6.50000000E+00  7.92500000E-01
      3.00000000E+00  6.50000000E+00  7.82500000E-01
      3.50000000E+00  6.50000000E+00  7.72500000E-01
      4.00000000E+00  6.50000000E+00  7.62500000E-01
      4.50000000E+00  6.50000000E+00  7.52500000E-01
      5.00000000E+00  6.50000000E+00  7.42500000E-01
      5.50000000E+00  6.50000000E+00  7.32500000E-01
      6.00000000E+00  6.50000000E+00  7.22500000E-01
      6.50000000E+00  6.50000000E+00  7.12500000E-01
      7.00000000E+00  6.50000000E+00  7.02500000E-01
      7.50000000E+00  6.50000000E+00  6.92500000E-01
      8.00000000E+00  6.50000000E+00  6.82500000E-01
      8.50000000E+00  6.50000000E+00  6.72500000E-01
      9.00000000E+00  6.50000000E+00  6.62500000E-01
      9.50000000E+00  6.50000000E+00  6.52500000E-01
      1.00000000E+01  6.50000000E+00  6.51666667E-01
      0.00000000E+00  6.00000000E+00  8.08333333E-01
      5.00000000E-01  6.00000000E+00  8.07500000E-01
      1.00000000E+00  6.00000000E+00  7.97500000E-01
      1.50000000E+00  6.00000000E+00  7.87500000E-01
      2.00000000E+00  6.00000000E+00  7.77500000E-01
      2.50000000E+00  6.00000000E+00  7.67500000E-01
      3.00000000E+00  6.00000000E+00  7.57500000E-01
      3.50000000E+00  6.00000000E+00  7.47500000E-01
      4.00000000E+00  6.00000000E+00  7.37500000E-01
      4.50000000E+00  6.00000000E+00  7.27500000E-01
      5.00000000E+00  6.00000000E+00  7.17500000E-01
      5.50000000E+00  6.00000000E+00  7.07500000E-01
      6.00000000E+00  6.00000000E+00  6.97500000E-01
      6.50000000E+00  6.00000000E+00  6.87500000E-01
      7.00000000E+00  6.00000000E+00  6.77500000E-01
      7.50000000E+00  6.00000000E+00  6.67500000E-01
      8.00000000E+00  6.00000000E+00  6.57500000E-01
[...]
POINT_DATA     7056
SCALARS pressure float
LOOKUP_TABLE default
 -0.13960717428778385     
 -0.13874621483094821     
 -0.13847773579408873     
 -0.13833175602065828     
 -0.13816923836304823     
 -0.13800621110331851     
 -0.13785177678731911     
 -0.13768820964729656     
 -0.13751612928903706     
 -0.13732932686142416     
 -0.13712020956673610     
 -0.13687337488559034     
 -0.13657631760133676     
 -0.13620839583969344     
 -0.13573864749759365     
 -0.13512634778412100     
 -0.13431121366799381     
 -0.13318970021023596     
 -0.13193678036696588     
 -0.12850873601945795     
 -0.12788133935313611     
 -0.13809816912714148     
 -0.13759998287835637     
 -0.13647889108975009     
 -0.13652491300391414     
 -0.13636197953368837     
 -0.13620627630187218     
 -0.13604019040753768     
 -0.13586175425955846     
 -0.13566168961763667     
 -0.13543887545297567     
 -0.13517820174745074     
 -0.13486939600790462     
 -0.13449354708222896     
 -0.13402456366628665     
 -0.13342707035871965     
 -0.13265123387952449     
 -0.13162793558017297     
 -0.13026134551724311     
 -0.12859532755408482     
 -0.12508391620603260     
 -0.12522499846577048     
 -0.13702917321336100     
 -0.13615508670406526     
 -0.13460348967899718     
 -0.13451380485470235     
 -0.13408883911693009     
 -0.13369428121335014     
 -0.13329125701710762     
 -0.13287193032349107     
 -0.13242599625320536     
 -0.13194100027488734     
 -0.13140057575613545     
 -0.13078241120309600     
 -0.13005857426322726     
 -0.12919109866887704     
 -0.12813436999372907     
 -0.12683272579077781     
 -0.12522418020458384     
 -0.12322317068890835     
 -0.12083140116751268     
 -0.11668067117989825     
 -0.11621334890389992     
 -0.13599414035046606     
 -0.13548766335832418     
 -0.13365562171086887     
 -0.13331290741108495     
 -0.13263652079740060     
 -0.13198484733018506     
 -0.13131400773606786     
 -0.13061432848210811     
 -0.12987230072739631     
 -0.12906934368701112     
 -0.12818343005297400     
 -0.12718683636590866     
 -0.12604788247352691     
 -0.12472953001877285     
 -0.12318247457747314     
 -0.12133825909148373     
 -0.11911822741762526     
 -0.11643048990031479     
 -0.11323428293382642     
 -0.10834774233625154     
 -0.10796005202710908     
 -0.13466387082383399     
 -0.13431505913548550     
 -0.13209910532724750     
 -0.13142768525916376     
 -0.13045589879063152     
 -0.12949564752071455     
 -0.12850857125105808     
 -0.12748098960526538     
 -0.12639735901219212     
 -0.12523919482044041     
 -0.12398598108512864     
 -0.12260591535457230     
 -0.12105484161694839     
 -0.11927924382567957     
 -0.11721606444898226     
 -0.11478986834991622     
 -0.11190609520817703     
 -0.10843708546488749     
 -0.10423428417769508     
  -9.8388714829723126E-002
  -9.7969793207967726E-002
 -0.13297832784956493     
 -0.13277116300054531     
 -0.13016591508466194     
 -0.12910543681120690     
 -0.12778230244496638     
 -0.12645979251671521     
 -0.12510845298148390     
 -0.12371959137332753     
 -0.12227593090249705     
 -0.12074821976113796     
 -0.11910009321335488     
 -0.11728915880736250     
 -0.11526398044186623     
 -0.11295987301385656     
 -0.11029346015623059     
 -0.10714625667475275     
 -0.10336430962738397     
  -9.8946161471651320E-002
  -9.3913834776455429E-002
  -8.7529391695668396E-002
  -8.7069499636858644E-002
 -0.13084209747169190     
 -0.13077523562444354     
 -0.12774439152236103     
 -0.12624048303620755     
 -0.12452517041946327     
 -0.12282023814444776     
 -0.12109405644016973     
 -0.11932161209823815     
 -0.11747439754484311     
 -0.11551782500129659     
 -0.11340870533978696     
 -0.11109048437908377     
 -0.10848717717260785     
 -0.10548992482123584     
 -0.10200754948912259     
  -9.8075386812814552E-002
  -9.3641325924279026E-002
  -8.8626126724604848E-002
  -8.2653073981668809E-002
  -7.5156293223199708E-002
  -7.4639691162143751E-002
 -0.12815808299752893     
 -0.12822850263394467     
 -0.12475542566420392     
 -0.12278991408660794     
 -0.12066728478906096     
 -0.11854272614430607     
 -0.11638323860610002     
 -0.11416012303894355     
 -0.11183535690668477     
 -0.10935799720167591     
 -0.10665537355121994     
 -0.10364027847122638     
 -0.10031372585965058     
  -9.6684643474338680E-002
  -9.2687491258724497E-002
  -8.8248561633119935E-002
  -8.3029733297543429E-002
  -7.6957457952933642E-002
  -7.0238778057303011E-002
  -6.2628390821034538E-002
  -6.2195749908363761E-002
 -0.12487538945584005     
 -0.12504056331100868     
 -0.12115361521729119     
 -0.11867965904929802     
 -0.11607732634919923     
 -0.11345665856311338     
 -0.11077563052828260     
 -0.10798471810365806     
 -0.10501316756576409     
 -0.10182962834526116     
  -9.8492966108288518E-002
  -9.4970060471679441E-002
  -9.1211921008196126E-002
  -8.7128751678107907E-002
  -8.2383644766555242E-002
  -7.7067396547563019E-002
  -7.1269126633601507E-002
  -6.4948188116988298E-002
  -5.8177417315911313E-002
  -4.9843476477755611E-002
  -4.9340564038745184E-002
 -0.12095410611263264     
 -0.12111203384561968     
 -0.11678124178444305     
 -0.11370843562342879     
 -0.11051906833606423     
 -0.10725593232572213     
 -0.10384689891043959     
 -0.10034030016118969     
  -9.6793460212480337E-002
  -9.3170062633795153E-002
  -8.9433554833111523E-002
  -8.5437257147017054E-002
  -8.0915181233425754E-002
  -7.6108604547027323E-002
  -7.0988889744294278E-002
  -6.5518777192953154E-002
  -5.9800233899165361E-002
  -5.3002714858350994E-002
  -4.5482285332809631E-002
  -3.7270635440097864E-002
  -3.6904349971840916E-002
 -0.11617700283053906     
 -0.11623108534154201     
 -0.11137381618691550     
 -0.10753426306105475     
 -0.10351321311721191     
  -9.9485332017396497E-002
  -9.5510465795006216E-002
  -9.1568044097298185E-002
  -8.7607218028948108E-002
  -8.3376075007478442E-002
  -7.8898814389383676E-002
  -7.4337500305224860E-002
  -6.9621738466775329E-002
  -6.4757444060711086E-002
  -5.9786723775358520E-002
  -5.4021138404443975E-002
  -4.7737687822473902E-002
  -4.0904126122410289E-002
  -3.3616314041194181E-002
  -2.5206094379661943E-002
  -2.4821262085523311E-002
 -0.11014781278496275     
 -0.11006857689973006     
 -0.10442049943393403     
  -9.9657502122948730E-002
  -9.5005682082842588E-002
  -9.0497703732765333E-002
  -8.6037252868770883E-002
  -8.1332803889279021E-002
  -7.6673915222956787E-002
  -7.2073166664641253E-002
  -6.7485989109174443E-002
  -6.2964368329761461E-002
  -5.8391725598979129E-002
  -5.3251587502352808E-002
  -4.7870568153889827E-002
  -4.2164424263703683E-002
  -3.6283454398684321E-002
  -2.9582467534049937E-002
  -2.2153315179261775E-002
  -1.4023981662981352E-002
  -1.3804793462058483E-002
 -0.10220698196077622     
 -0.10199580145608521     
  -9.5743631140450078E-002
  -9.0387744332682582E-002
  -8.5135687611789357E-002
  -7.9750714642142395E-002
  -7.4601717646167146E-002
  -6.9660123601014090E-002
  -6.4959232186743862E-002
  -6.0520168824788514E-002
  -5.5852508183320160E-002
  -5.1070733444003424E-002
  -4.6236604022577135E-002
  -4.1302024439653751E-002
  -3.6380744098823102E-002
  -3.0975479188531187E-002
  -2.5135817271197590E-002
  -1.8794305052523424E-002
  -1.1572769892749642E-002
  -3.3204468221929794E-003
  -3.3291160679483813E-003
  -9.2597805251199899E-002
  -9.2277869592738621E-002
  -8.5506028242257073E-002
  -7.9123932849042872E-002
  -7.3133743256226652E-002
  -6.7531519925579417E-002
  -6.2416521472609572E-002
  -5.7570367799611985E-002
  -5.2659044991832653E-002
  -4.7933117315243259E-002
  -4.3300758138552893E-002
  -3.8821688908144455E-002
  -3.4482433694327991E-002
  -2.9857780519669416E-002
  -2.5060112103232723E-002
  -2.0118457273820663E-002
  -1.4936667292150397E-002
  -8.8814534757736437E-003
   1.2112132436710618E-004
   3.9675416132551287E-004
   3.2712017344405851E-004
  -8.0777666943049303E-002
  -8.0420843779720919E-002
  -7.2868367539189571E-002
  -6.6196684139783413E-002
  -6.0316297391482629E-002
  -5.4579121195122621E-002
  -4.9180597291925379E-002
  -4.4147652038499359E-002
  -3.9529998855506752E-002
  -3.5331236197994199E-002
  -3.1019117893589382E-002
  -2.6756230399467531E-002
  -2.2654966799528043E-002
  -1.8640707810588651E-002
  -1.4433661076064558E-002
  -1.0109851548005208E-002
  -5.9444791350182040E-003
   1.3559111958440364E-004
   6.0435917794742985E-004
   1.0130138093577426E-003
   1.0781751522180964E-003
  -6.6922153272357593E-002
  -6.6578000877612870E-002
  -5.9162414018362849E-002
  -5.2172279246494722E-002
  -4.5893684848641675E-002
  -4.0302936679602115E-002
  -3.5405742908005841E-002
  -3.0668668713546839E-002
  -2.6406206868636758E-002
  -2.2484075875689302E-002
  -1.8718904270854729E-002
  -1.4837019213266059E-002
  -1.1432218376501335E-002
  -8.2462382910960374E-003
  -4.1046954520937082E-003
   1.0906167773331685E-004
   3.3439272547749316E-004
   6.4407629873541406E-004
   1.2659027033661925E-003
   1.6098484644969558E-003
   1.5068129595509011E-003
  -5.1732721663966912E-002
  -5.1388773213787022E-002
  -4.3376954846512564E-002
  -3.6739447729277452E-002
  -3.0951330975089911E-002
  -2.5749311580592838E-002
  -2.1088092348057343E-002
  -1.6679972858864071E-002
  -1.3316943965406492E-002
  -1.0351152321410833E-002
  -7.2729954307269966E-003
  -1.8906455428147205E-003
   1.2329425544161266E-004
   2.9840438600004865E-004
   4.6999220876496389E-004
   6.9147505112757937E-004
   1.0332397829207860E-003
   1.4250009219019554E-003
   1.9959249888967740E-003
   2.1293799931176084E-003
   1.8603118616531448E-003
  -3.4987635073951369E-002
  -3.4710847189742690E-002
  -2.6458640347163484E-002
  -2.0134062194414173E-002
  -1.5433960638715211E-002
  -1.0872663425329023E-002
  -7.0705052208998777E-003
   2.8587945071970744E-005
   1.9627905385590495E-004
   3.6225264895690636E-004
   5.1617799671259824E-004
   6.6844487446706270E-004
   8.5912704846524267E-004
   1.1244529690741789E-003
   1.3860802111307089E-003
   1.6481837229809194E-003
   1.9228645085134432E-003
   2.2397597040443203E-003
   2.7853480105323528E-003
   2.7318187046772415E-003
   2.2677203851284664E-003
  -1.6999008499774915E-002
  -1.6646129181091544E-002
  -5.7567869248960008E-003
   1.8809598166797387E-004
   4.7281950891291927E-004
   7.1369224379882145E-004
   9.1909515018027380E-004
   1.1153553227146844E-003
   1.3594370446754456E-003
   1.6262939939792769E-003
   1.8642537153860765E-003
   2.0907238425911731E-003
   2.2948617049123633E-003
   2.4843003863369117E-003
   2.6791978787630288E-003
   2.8920756666279343E-003
   3.1409546998890812E-003
   3.4470944203759727E-003
   3.9883406145625900E-003
   3.6031718152209251E-003
   2.8320854129524559E-003
   1.0594757410031929E-003
   1.1323793532249497E-003
   1.8690818431937673E-003
   2.4929540070436659E-003
   2.8628888293965463E-003
   3.0772527833631547E-003
   3.2298998119414330E-003
   3.3357489887893654E-003
   3.4022075790224732E-003
   3.4510870498127709E-003
   3.5042760771845276E-003
   3.5668719785785694E-003
   3.6410393990583406E-003
   3.7305912683688494E-003
   3.8398094808177754E-003
   3.9733516935593237E-003
   4.1412975104177666E-003
   4.3609961503116206E-003
   4.7246311787066579E-003
   4.7571587415084094E-003
   3.8774876723493626E-003
   1.6232437669545163E-003
   1.9767733795264721E-003
   3.2025345448401729E-003
   4.4568489301268898E-003
   4.9000003327762318E-003
   4.8446459407464389E-003
   4.7653605279411610E-003
   4.6431737459798851E-003
   4.5121515261914106E-003
   4.3966031403796131E-003
   4.3065652587388394E-003
   4.2446299686726766E-003
   4.2105197632531354E-003
   4.2041928036315518E-003
   4.2267231360665746E-003
   4.2795291530207382E-003
   4.3660077781024599E-003
   4.4950449093401979E-003
   4.7032592285385973E-003
   4.9325777667645013E-003
   4.9981405035262267E-003
 -0.13379899211985721     
 -0.13299800090110317     
 -0.13272961516645645     
 -0.13258412345709350     
 -0.13242191743154441     
 -0.13225920579630654     
 -0.13210505448650448     
 -0.13194176603537253     
 -0.13176994220167307     
 -0.13158335553807562     
 -0.13137438483368163     
 -0.13112760525088496     
 -0.13083043978048434     
 -0.13046214785636859     
 -0.12999165660893877     
 -0.12937812384147238     
 -0.12856115458776651     
 -0.12743709758508515     
 -0.12617953475055207     
 -0.12274390337867513     
 -0.12221914753588224     
 -0.13235723388391443     
 -0.13197359867177194     
 -0.13085061147722790     
 -0.13089759044095720     
 -0.13073534174520565     
 -0.13058025034222781     
 -0.13041469469027314     
 -0.13023666100440143     
 -0.13003684432059809     
 -0.12981404294344806     
 -0.12955311634391406     
 -0.12924369027522251     
 -0.12886675012279028     
 -0.12839610654092695     
 -0.12779629907051163     
 -0.12701733266869172     
 -0.12598976284394678     
 -0.12461718747816469     
 -0.12294176224240286     
 -0.11941885767610426     
 -0.11965742425718771     
 -0.13129185027099891     
 -0.13053400803214926     
 -0.12898123347007490     
 -0.12889280527030098     
 -0.12846866180358515     
 -0.12807458392547957     
 -0.12767179432867740     
 -0.12725238366259939     
 -0.12680597532363622     
 -0.12632004887317388     
 -0.12577817437561767     
 -0.12515795201956298     
 -0.12443129976673759     
 -0.12355998349734695     
 -0.12249792368248276     
 -0.12118877095240621     
 -0.11957039422356586     
 -0.11755860118458646     
 -0.11515445549617859     
 -0.11099355575369137     
 -0.11062360071474042     
 -0.13025830270728472     
 -0.12986906425060407     
 -0.12803603259485791     
 -0.12769450233070309     
 -0.12701856676923756     
 -0.12636666086733650     
 -0.12569503553001724     
 -0.12499394662874878     
 -0.12424985754136315     
 -0.12344408984862186     
 -0.12255441099563827     
 -0.12155275303134892     
 -0.12040698362235912     
 -0.11907998433550650     
 -0.11752334165130511     
 -0.11566883745018705     
 -0.11343766408781523     
 -0.11073829054798850     
 -0.10752973772314016     
 -0.10263801344549840     
 -0.10234337224897699     
 -0.12892958663314485     
 -0.12869768813833019     
 -0.12648062435741478     
 -0.12580944443534692     
 -0.12483679432206898     
 -0.12387476094026381     
 -0.12288510285817979     
 -0.12185395486915188     
 -0.12076550273376870     
 -0.11960093571373107     
 -0.11833978871799697     
 -0.11695105943436640     
 -0.11539077493277375     
 -0.11360522657803392     
 -0.11153134893456820     
 -0.10909398297151061     
 -0.10619924855996130     
 -0.10272140586187593     
  -9.8510656681981418E-002
  -9.2650429563086223E-002
  -9.2315772281954422E-002
 -0.12724476470872473     
 -0.12715224313264656     
 -0.12454554840702246     
 -0.12348335491563438     
 -0.12215728571630850     
 -0.12083039116587574     
 -0.11947302692692356     
 -0.11807653961587845     
 -0.11662458112865053     
 -0.11508826461780854     
 -0.11343102839699358     
 -0.11161039471589569     
 -0.10957499512570115     
 -0.10726046834363426     
 -0.10458418821503074     
 -0.10142921677073707     
  -9.7637914928180067E-002
  -9.3198682970785277E-002
  -8.8142587140177378E-002
  -8.1744509178381372E-002
  -8.1356172342510677E-002
 -0.12510669381131101     
 -0.12515098245974013     
 -0.12211769600746419     
 -0.12060866710012423     
 -0.11888634933848490     
 -0.11717292667593780     
 -0.11543810273870043     
 -0.11365678793030159     
 -0.11180034286667505     
 -0.10983418982018073     
 -0.10771533406708703     
 -0.10538760585122897     
 -0.10277594657906584     
  -9.9771746696929606E-002
  -9.6275654961468976E-002
  -9.2323064715192707E-002
  -8.7867149380886272E-002
  -8.2830372174403991E-002
  -7.6848924855459549E-002
  -6.9331675163163284E-002
  -6.8871176051473013E-002
 -0.12241636397111919     
 -0.12259397620766514     
 -0.11911440282910643     
 -0.11713916008244943     
 -0.11500735636616913     
 -0.11287339089077472     
 -0.11070430755174168     
 -0.10847156878848489     
 -0.10613747755153656     
 -0.10365162008788784     
 -0.10094211010186142     
  -9.7918588878864066E-002
  -9.4574413309971211E-002
  -9.0925899563780735E-002
  -8.6907874606774266E-002
  -8.2449709678095492E-002
  -7.7224146331049973E-002
  -7.1125825057757622E-002
  -6.4379260208741226E-002
  -5.6744460917447587E-002
  -5.6346639236319107E-002
 -0.11911917113124935     
 -0.11938710260086143     
 -0.11549086856875830     
 -0.11300619835688180     
 -0.11039375096591830     
 -0.10776317029490666     
 -0.10507299637876344     
 -0.10227453369020616     
  -9.9296604658143175E-002
  -9.6099645935475278E-002
  -9.2744725791463978E-002
  -8.9202930226507826E-002
  -8.5424882441708996E-002
  -8.1326419184174298E-002
  -7.6573115634720912E-002
  -7.1233316879295766E-002
  -6.5410590558852150E-002
  -5.9062582740356216E-002
  -5.2276013728272890E-002
  -4.3925607901581912E-002
  -4.3448217098557555E-002
 -0.11517925302532901     
 -0.11543483756661928     
 -0.11109366150559619     
 -0.10800976075231480     
 -0.10481107217427708     
 -0.10154090741303907     
  -9.8124410856600883E-002
  -9.4600625048229955E-002
  -9.1035272769076928E-002
  -8.7392670761233179E-002
  -8.3638059550283306E-002
  -7.9632851207173755E-002
  -7.5096696673779967E-002
  -7.0268432518242649E-002
  -6.5127092092074942E-002
  -5.9633327972761566E-002
  -5.3892312503857578E-002
  -4.7082443181674108E-002
  -3.9542657007669478E-002
  -3.1316264231637046E-002
  -3.0961118273102634E-002
 -0.11038203037256664     
 -0.11052615391301296     
 -0.10565986293284560     
 -0.10181254472703935     
  -9.7782965727681678E-002
  -9.3736216097229305E-002
  -8.9741990368375019E-002
  -8.5779769231902600E-002
  -8.1803708373119982E-002
  -7.7567810112134358E-002
  -7.3069567080458642E-002
  -6.8488211705873617E-002
  -6.3752820111699970E-002
  -5.8866789171167354E-002
  -5.3877151529595560E-002
  -4.8101733608136084E-002
  -4.1801849765498354E-002
  -3.4952195605322034E-002
  -2.7651685227141336E-002
  -1.9233840305354029E-002
  -1.8855432611444012E-002
 -0.10433354097380088     
 -0.10433604223702596     
  -9.8682951831857629E-002
  -9.3899756649227228E-002
  -8.9227320109900546E-002
  -8.4698898590328600E-002
  -8.0227265092431332E-002
  -7.5511048843823772E-002
  -7.0831870218149198E-002
  -6.6212140497930547E-002
  -6.1605182475332677E-002
  -5.7064044714869547E-002
  -5.2484434965206959E-002
  -4.7328887185364453E-002
  -4.1933753073021267E-002
  -3.6214549805086829E-002
  -3.0318936895973897E-002
  -2.3610180757976034E-002
  -1.6172241984705394E-002
  -8.0388438488662589E-003
  -7.8218163675880768E-003
  -9.6368171851898124E-002
  -9.6228426690343261E-002
  -8.9957003838019425E-002
  -8.4578831860535900E-002
  -7.9318532103061279E-002
  -7.3915570508594541E-002
  -6.8746544329875481E-002
  -6.3786054043196830E-002
  -5.9064980371815567E-002
  -5.4608019337284340E-002
  -4.9934590161817803E-002
  -4.5140237773526222E-002
  -4.0294749894959493E-002
  -3.5348739317795315E-002
  -3.0416080798174955E-002
  -2.5005461609559555E-002
  -1.9158688744078677E-002
  -1.2807927890018209E-002
  -5.5849758940963896E-003
   2.6214418676458197E-003
   2.6175261148404919E-003
  -8.6721807490004479E-002
  -8.6456266500600315E-002
  -7.9677372111854383E-002
  -7.3276437779126749E-002
  -6.7265847683732699E-002
  -6.1643174547167563E-002
  -5.6508050646627547E-002
  -5.1654910010060756E-002
  -4.6730672822709443E-002
  -4.1993475069515569E-002
  -3.7350497078807832E-002
  -3.2861708794143178E-002
  -2.8516457320604632E-002
  -2.3885629939632735E-002
  -1.9083011324076356E-002
  -1.4136708014220121E-002
  -8.9504284220829951E-003
  -2.8937775890374930E-003
   5.9915405029467381E-003
   6.4465508093786202E-003
   6.3514760059624918E-003
  -7.4874208993317468E-002
  -7.4559742947947108E-002
  -6.6989196445393626E-002