# vtk DataFile Version 2.0
3D Unstructured Grid of Linear Triangles
ASCII
DATASET UNSTRUCTURED_GRID
FIELD FieldData  1
TIME 1 1 double
        1805.47799
POINTS     7056 float
      0.00000000E+00  1.00000000E+01  1.00000000E+00
      5.00000000E-01  1.00000000E+01  9.93333333E-01
      1.00000000E+00  1.00000000E+01  9.83333333E-01
      1.50000000E+00  1.00000000E+01  9.73333333E-01
      2.00000000E+00  1.00000000E+01  9.63333333E-01
      2.50000000E+00  1.00000000E+01  9.53333333E-01
      3.00000000E+00  1.00000000E+01  9.43333333E-01
      3.50000000E+00  1.00000000E+01  9.33333333E-01
      4.00000000E+00  1.00000000E+01  9.23333333E-01
      4.50000000E+00  1.00000000E+01  9.13333333E-01
      5.00000000E+00  1.00000000E+01  9.03333333E-01
      5.50000000E+00  1.00000000E+01  8.93333333E-01
      6.00000000E+00  1.00000000E+01  8.83333333E-01
      6.50000000E+00  1.00000000E+01  8.73333333E-01
      7.00000000E+00  1.00000000E+01  8.63333333E-01
      7.50000000E+00  1.00000000E+01  8.53333333E-01
      8.00000000E+00  1.00000000E+01  8.43333333E-01
      8.50000000E+00  1.00000000E+01  8.33333333E-01
      9.00000000E+00  1.00000000E+01  8.23333333E-01
      9.50000000E+00  1.00000000E+01  8.13333333E-01
      1.00000000E+01  1.00000000E+01  8.10000000E-01
      0.00000000E+00  9.50000000E+00  9.83333333E-01
      5.00000000E-01  9.50000000E+00  9.82500000E-01
      1.00000000E+00  9.50000000E+00  9.72500000E-01
      1.50000000E+00  9.50000000E+00  9.62500000E-01
      2.00000000E+00  9.50000000E+00  9.52500000E-01
      2.50000000E+00  9.50000000E+00  9.42500000E-01
      3.00000000E+00  9.50000000E+00  9.32500000E-01
      3.50000000E+00  9.50000000E+00  9.22500000E-01
      4.00000000E+00  9.50000000E+00  9.12500000E-01
      4.50000000E+00  9.50000000E+00  9.02500000E-01
      5.00000000E+00  9.50000000E+00  8.92500000E-01
      5.50000000E+00  9.50000000E+00  8.82500000E-01
      6.00000000E+00  9.50000000E+00  8.72500000E-01
      6.50000000E+00  9.50000000E+00  8.62500000E-01
      7.00000000E+00  9.50000000E+00  8.52500000E-01
      7.50000000E+00  9.50000000E+00  8.42500000E-01
      8.00000000E+00  9.50000000E+00  8.32500000E-01
      8.50000000E+00  9.50000000E+00  8.22500000E-01
      9.00000000E+00  9.50000000E+00  8.12500000E-01
      9.50000000E+00  9.50000000E+00  8.02500000E-01
      1.00000000E+01  9.50000000E+00  8.01666667E-01
      0.00000000E+00  9.00000000E+00  9.58333333E-01
      5.00000000E-01  9.00000000E+00  9.57500000E-01
      1.00000000E+00  9.00000000E+00  9.47500000E-01
      1.50000000E+00  9.00000000E+00  9.37500000E-01
      2.00000000E+00  9.00000000E+00  9.27500000E-01
      2.50000000E+00  9.00000000E+00  9.17500000E-01
      3.00000000E+00  9.00000000E+00  9.07500000E-01
      3.50000000E+00  9.00000000E+00  8.97500000E-01
      4.00000000E+00  9.00000000E+00  8.87500000E-01
      4.50000000E+00  9.00000000E+00  8.77500000E-01
      5.00000000E+00  9.00000000E+00  8.67500000E-01
      5.50000000E+00  9.00000000E+00  8.57500000E-01
      6.00000000E+00  9.00000000E+00  8.47500000E-01
      6.50000000E+00  9.00000000E+00  8.37500000E-01
      7.00000000E+00  9.00000000E+00  8.27500000E-01
      7.50000000E+00  9.00000000E+00  8.17500000E-01
      8.00000000E+00  9.00000000E+00  8.07500000E-01
      8.50000000E+00  9.00000000E+00  7.97500000E-01
      9.00000000E+00  9.00000000E+00  7.87500000E-01
      9.50000000E+00  9.00000000E+00  7.77500000E-01
      1.00000000E+01  9.00000000E+00  7.76666667E-01
      0.00000000E+00  8.50000000E+00  9.33333333E-01
      5.00000000E-01  8.50000000E+00  9.32500000E-01
      1.00000000E+00  8.50000000E+00  9.22500000E-01
      1.50000000E+00  8.50000000E+00  9.12500000E-01
      2.00000000E+00  8.50000000E+00  9.02500000E-01
      2.50000000E+00  8.50000000E+00  8.92500000E-01
      3.00000000E+00  8.50000000E+00  8.82500000E-01
      3.50000000E+00  8.50000000E+00  8.72500000E-01
      4.00000000E+00  8.50000000E+00  8.62500000E-01
      4.50000000E+00  8.50000000E+00  8.52500000E-01
      5.00000000E+00  8.50000000E+00  8.42500000E-01
      5.50000000E+00  8.50000000E+00  8.32500000E-01
      6.00000000E+00  8.50000000E+00  8.22500000E-01
      6.50000000E+00  8.50000000E+00  8.12500000E-01
      7.00000000E+00  8.50000000E+00  8.02500000E-01
      7.50000000E+00  8.50000000E+00  7.92500000E-01
      8.00000000E+00  8.50000000E+00  7.82500000E-01
      8.50000000E+00  8.50000000E+00  7.72500000E-01
      9.00000000E+00  8.50000000E+00  7.62500000E-01
      9.50000000E+00  8.50000000E+00  7.52500000E-01
      1.00000000E+01  8.50000000E+00  7.51666667E-01
      0.00000000E+00  8.00000000E+00  9.08333333E-01
      5.00000000E-01  8.00000000E+00  9.07500000E-01
      1.00000000E+00  8.00000000E+00  8.97500000E-01
      1.50000000E+00  8.00000000E+00  8.87500000E-01
      2.00000000E+00  8.00000000E+00  8.77500000E-01
      2.50000000E+00  8.00000000E+00  8.67500000E-01
      3.00000000E+00  8.00000000E+00  8.57500000E-01
      3.50000000E+00  8.00000000E+00  8.47500000E-01
      4.00000000E+00  8.00000000E+00  8.37500000E-01
      4.50000000E+00  8.00000000E+00  8.27500000E-01
      5.00000000E+00  8.00000000E+00  8.17500000E-01
      5.50000000E+00  8.00000000E+00  8.07500000E-01
      6.00000000E+00  8.00000000E+00  7.97500000E-01
      6.50000000E+00  8.00000000E+00  7.87500000E-01
      7.00000000E+00  8.00000000E+00  7.77500000E-01
      7.50000000E+00  8.00000000E+00  7.67500000E-01
      8.00000000E+00  8.00000000E+00  7.57500000E-01
      8.50000000E+00  8.00000000E+00  7.47500000E-01
      9.00000000E+00  8.00000000E+00  7.37500000E-01
      9.50000000E+00  8.00000000E+00  7.27500000E-01
      1.00000000E+01  8.00000000E+00  7.26666667E-01
      0.00000000E+00  7.50000000E+00  8.83333333E-01
      5.00000000E-01  7.50000000E+00  8.82500000E-01
      1.00000000E+00  7.50000000E+00  8.72500000E-01
      1.50000000E+00  7.50000000E+00  8.62500000E-01
      2.00000000E+00  7.50000000E+00  8.52500000E-01
      2.50000000E+00  7.50000000E+00  8.42500000E-01
      3.00000000E+00  7.50000000E+00  8.32500000E-01
      3.50000000E+00  7.50000000E+00  8.22500000E-01
      4.00000000E+00  7.50000000E+00  8.12500000E-01
      4.50000000E+00  7.50000000E+00  8.02500000E-01
      5.00000000E+00  7.50000000E+00  7.92500000E-01
      5.50000000E+00  7.50000000E+00  7.82500000E-01
      6.00000000E+00  7.50000000E+00  7.72500000E-01
      6.50000000E+00  7.50000000E+00  7.62500000E-01
      7.00000000E+00  7.50000000E+00  7.52500000E-01
      7.50000000E+00  7.50000000E+00  7.42500000E-01
      8.00000000E+00  7.50000000E+00  7.32500000E-01
      8.50000000E+00  7.50000000E+00  7.22500000E-01
      9.00000000E+00  7.50000000E+00  7.12500000E-01
      9.50000000E+00  7.50000000E+00  7.02500000E-01
      1.00000000E+01  7.50000000E+00  7.01666667E-01
      0.00000000E+00  7.00000000E+00  8.58333333E-01
      5.00000000E-01  7.00000000E+00  8.57500000E-01
      1.00000000E+00  7.00000000E+00  8.47500000E-01
      1.50000000E+00  7.00000000E+00  8.37500000E-01
      2.00000000E+00  7.00000000E+00  8.27500000E-01
      2.50000000E+00  7.00000000E+00  8.17500000E-01
      3.00000000E+00  7.00000000E+00  8.07500000E-01
      3.50000000E+00  7.00000000E+00  7.97500000E-01
      4.00000000E+00  7.00000000E+00  7.87500000E-01
      4.50000000E+00  7.00000000E+00  7.77500000E-01
      5.00000000E+00  7.00000000E+00  7.67500000E-01
      5.50000000E+00  7.00000000E+00  7.57500000E-01
      6.00000000E+00  7.00000000E+00  7.47500000E-01
      6.50000000E+00  7.00000000E+00  7.37500000E-01
      7.00000000E+00  7.00000000E+00  7.27500000E-01
      7.50000000E+00  7.00000000E+00  7.17500000E-01
      8.00000000E+00  7.00000000E+00  7.07500000E-01
      8.50000000E+00  7.00000000E+00  6.97500000E-01
      9.00000000E+00  7.00000000E+00  6.87500000E-01
      9.50000000E+00  7.00000000E+00  6.77500000E-01
      1.00000000E+01  7.00000000E+00  6.76666667E-01
      0.00000000E+00  6.50000000E+00  8.33333333E-01
      5.00000000E-01  6.50000000E+00  8.32500000E-01
      1.00000000E+00  6.50000000E+00  8.22500000E-01
      1.50000000E+00  6.50000000E+00  8.12500000E-01
      2.00000000E+00  6.50000000E+00  8.02500000E-01
      2.50000000E+00  6.50000000E+00  7.92500000E-01
      3.00000000E+00  6.50000000E+00  7.82500000E-01
      3.50000000E+00  6.50000000E+00  7.72500000E-01
      4.00000000E+00  6.50000000E+00  7.62500000E-01
      4.50000000E+00  6.50000000E+00  7.52500000E-01
      5.00000000E+00  6.50000000E+00  7.42500000E-01
      5.50000000E+00  6.50000000E+00  7.32500000E-01
      6.00000000E+00  6.50000000E+00  7.22500000E-01
      6.50000000E+00  6.50000000E+00  7.12500000E-01
      7.00000000E+00  6.50000000E+00  7.02500000E-01
      7.50000000E+00  6.50000000E+00  6.92500000E-01
      8.00000000E+00  6.50000000E+00  6.82500000E-01
      8.50000000E+00  6.50000000E+00  6.72500000E-01
      9.00000000E+00  6.50000000E+00  6.62500000E-01
      9.50000000E+00  6.50000000E+00  6.52500000E-01
      1.00000000E+01  6.50000000E+00  6.51666667E-01
      0.00000000E+00  6.00000000E+00  8.08333333E-01
      5.00000000E-01  6.00000000E+00  8.07500000E-01
      1.00000000E+00  6.00000000E+00  7.97500000E-01
      1.50000000E+00  6.00000000E+00  7.87500000E-01
      2.00000000E+00  6.00000000E+00  7.77500000E-01
      2.50000000E+00  6.00000000E+00  7.67500000E-01
      3.00000000E+00  6.00000000E+00  7.57500000E-01
      3.50000000E+00  6.00000000E+00  7.47500000E-01
      4.00000000E+00  6.00000000E+00  7.37500000E-01
      4.50000000E+00  6.00000000E+00  7.27500000E-01
      5.00000000E+00  6.00000000E+00  7.17500000E-01
      5.50000000E+00  6.00000000E+00  7.07500000E-01
      6.00000000E+00  6.00000000E+00  6.97500000E-01
      6.50000000E+00  6.00000000E+00  6.87500000E-01
      7.00000000E+00  6.00000000E+00  6.77500000E-01
      7.50000000E+00  6.00000000E+00  6.67500000E-01
      8.00000000E+00  6.00000000E+00  6.57500000E-01
[...]
POINT_DATA     7056
SCALARS pressure float
LOOKUP_TABLE default
 -0.11888564699244467     
 -0.11788755380979907     
 -0.11751532355621062     
 -0.11724228799565736     
 -0.11698622243476429     
 -0.11674950499487841     
 -0.11649892109366838     
 -0.11626118811970375     
 -0.11601285604899889     
 -0.11575954705878336     
 -0.11549564353247647     
 -0.11519689607042669     
 -0.11485916681362413     
 -0.11446347206875247     
 -0.11398213966332958     
 -0.11338357655496591     
 -0.11261269275276782     
 -0.11156272548575236     
 -0.11030354427158609     
 -0.10706448855341250     
 -0.10637205031688927     
 -0.11713646614668820     
 -0.11659444209130945     
 -0.11546781011969853     
 -0.11535167269147895     
 -0.11509900196124866     
 -0.11484587277714035     
 -0.11460681263283154     
 -0.11435949328193518     
 -0.11410697871016770     
 -0.11383849954060236     
 -0.11354713247694417     
 -0.11321618238376821     
 -0.11283129811090306     
 -0.11237250294349774     
 -0.11179876451486198     
 -0.11106364120887605     
 -0.11008908719831868     
 -0.10876702318396390     
 -0.10704329671672017     
 -0.10342999275517005     
 -0.10348795322786192     
 -0.11561546221064645     
 -0.11482249893114277     
 -0.11316352872263813     
 -0.11285020494447688     
 -0.11230080008904075     
 -0.11179648067865268     
 -0.11131019033172977     
 -0.11082829393318927     
 -0.11034708580592599     
 -0.10984802004454836     
 -0.10931361808626371     
 -0.10871961410090919     
 -0.10803750310396473     
 -0.10722485082269646     
 -0.10622749890095699     
 -0.10496914190322829     
 -0.10333974530736748     
 -0.10118391976442480     
  -9.8383556926993646E-002
  -9.3734766635876515E-002
  -9.3257503582529419E-002
 -0.11407622526923054     
 -0.11374960799931796     
 -0.11173317012200328     
 -0.11113307098239827     
 -0.11032972722483922     
 -0.10957892435519066     
 -0.10884266469782984     
 -0.10810677344804913     
 -0.10735110445690382     
 -0.10655806995015761     
 -0.10569720007848478     
 -0.10473579621956321     
 -0.10362625713721067     
 -0.10230608037955019     
 -0.10069210944268424     
  -9.8677456498487900E-002
  -9.6163459527440862E-002
  -9.3081557377303573E-002
  -8.9324665983261775E-002
  -8.3825289217924731E-002
  -8.3369122924268832E-002
 -0.11230189440989714     
 -0.11226512181791978     
 -0.10983564326106168     
 -0.10891581483202274     
 -0.10781922991361025     
 -0.10676375619569893     
 -0.10571201503604194     
 -0.10464471590454785     
 -0.10353951942490751     
 -0.10236102466251042     
 -0.10107325698517598     
  -9.9623063610475973E-002
  -9.7951457193061628E-002
  -9.6000867372859303E-002
  -9.3727374147326611E-002
  -9.1046418115020428E-002
  -8.7833553955841887E-002
  -8.3890221556998434E-002
  -7.8842111696494854E-002
  -7.2214347199589093E-002
  -7.1783718049211825E-002
 -0.11031634439076657     
 -0.11048651240592558     
 -0.10767382803690301     
 -0.10636722944902878     
 -0.10490101756588673     
 -0.10345686120815148     
 -0.10199743941265701     
 -0.10049552808257384     
  -9.8919623687099056E-002
  -9.7234613296008660E-002
  -9.5415292306906097E-002
  -9.3441732153439913E-002
  -9.1257462796749372E-002
  -8.8782353364109695E-002
  -8.5909756272898805E-002
  -8.2446206740511618E-002
  -7.8151554341762228E-002
  -7.3179499818853022E-002
  -6.7500460431922177E-002
  -6.0771271737219662E-002
  -6.0416627566397423E-002
 -0.10809165811915360     
 -0.10835673642475865     
 -0.10513700658794062     
 -0.10334780804164147     
 -0.10141248451800518     
  -9.9468272947040443E-002
  -9.7482377340652834E-002
  -9.5446922541930185E-002
  -9.3372446743369128E-002
  -9.1229629551217870E-002
  -8.8963714494993323E-002
  -8.6503842379899387E-002
  -8.3737910318000972E-002
  -8.0479833918305543E-002
  -7.6710173350818034E-002
  -7.2505600642972581E-002
  -6.7785730989080223E-002
  -6.2538232343826702E-002
  -5.6385184551828046E-002
  -4.8534001074784408E-002
  -4.8078784470943478E-002
 -0.10549589290801080     
 -0.10576414383657673     
 -0.10207115378768383     
  -9.9676080129159378E-002
  -9.7145684889024669E-002
  -9.4623450882181978E-002
  -9.2136060179394783E-002
  -8.9651460642560313E-002
  -8.7117533119725171E-002
  -8.4459405669067830E-002
  -8.1550964982100030E-002
  -7.8307672218388163E-002
  -7.4845888179905978E-002
  -7.1126496390285537E-002
  -6.7077540447248188E-002
  -6.2673817484126468E-002
  -5.7703490542493199E-002
  -5.1488730991872907E-002
  -4.4545020778478099E-002
  -3.6885580068342277E-002
  -3.6578171234122152E-002
 -0.10232708608247430     
 -0.10254437940354760     
  -9.8258922868895857E-002
  -9.5160669502269563E-002
  -9.2072230471790140E-002
  -8.9058943871451746E-002
  -8.6061229500540626E-002
  -8.2985301205220269E-002
  -7.9706556693879341E-002
  -7.6324169197457062E-002
  -7.2906858284256443E-002
  -6.9394377035900762E-002
  -6.5731664777039941E-002
  -6.1887304647122485E-002
  -5.7610749293673984E-002
  -5.2430504290859506E-002
  -4.6733482099000301E-002
  -4.0460810341485541E-002
  -3.3609802905019678E-002
  -2.5334170014144126E-002
  -2.4929798423363653E-002
  -9.8309473795447272E-002
  -9.8436217103400767E-002
  -9.3574850542165716E-002
  -8.9877991580632671E-002
  -8.6214243777039443E-002
  -8.2523631637107908E-002
  -7.8684462056814772E-002
  -7.4919614539239732E-002
  -7.1268165923788679E-002
  -6.7680396307259333E-002
  -6.4113996054715253E-002
  -6.0527260603620923E-002
  -5.6505969084785716E-002
  -5.1994476762382981E-002
  -4.7188727046550520E-002
  -4.2020505495208284E-002
  -3.6601902916378375E-002
  -3.0127029989775577E-002
  -2.2700524463457303E-002
  -1.4393568279143903E-002
  -1.4049171540979183E-002
  -9.3386790516276977E-002
  -9.3390508974137934E-002
  -8.8038947921783961E-002
  -8.3589763018417348E-002
  -7.8976038043949273E-002
  -7.4528186077187156E-002
  -7.0339988561182884E-002
  -6.6376651230498865E-002
  -6.2612456527713273E-002
  -5.8939528622601677E-002
  -5.4831476044137413E-002
  -5.0640237132439515E-002
  -4.6356420646544362E-002
  -4.1916158886276977E-002
  -3.7381776524533374E-002
  -3.2325252450006801E-002
  -2.6567216716235298E-002
  -2.0042973478060128E-002
  -1.2327193363247307E-002
  -4.3947032581558108E-003
  -4.1446553269177955E-003
  -8.7466713576939387E-002
  -8.7326701383354785E-002
  -8.1148143467837552E-002
  -7.5680573025830367E-002
  -7.0600363853609016E-002
  -6.5920453238577370E-002
  -6.1631679594900894E-002
  -5.7452827388346117E-002
  -5.3060710445620475E-002
  -4.8837659187670919E-002
  -4.4703657854397817E-002
  -4.0648158742887970E-002
  -3.6695030419223416E-002
  -3.2350371752758511E-002
  -2.7669280207025967E-002
  -2.2619075157226744E-002
  -1.7237167370437678E-002
  -1.0487131560488123E-002
   2.1841306295711753E-004
   7.2713058155500661E-004
   6.5185356908100149E-004
  -7.9741130678485289E-002
  -7.9520360283364205E-002
  -7.2676113604980427E-002
  -6.6857586619669715E-002
  -6.1644776885418022E-002
  -5.6651742013920765E-002
  -5.1689739262235281E-002
  -4.7074627222133639E-002
  -4.2744377726234337E-002
  -3.8738635527776580E-002
  -3.4936902456347993E-002
  -3.0886492870745710E-002
  -2.6790227194798469E-002
  -2.2538414821359626E-002
  -1.8319615448949264E-002
  -1.3578458889376088E-002
  -8.3553244981616343E-003
   1.2750874724866423E-004
   9.2312705060804069E-004
   1.7985199883795750E-003
   1.9539053875061259E-003
  -7.0593674870698869E-002
  -7.0292948799773297E-002
  -6.3297797390999583E-002
  -5.7226319391441058E-002
  -5.1252041684832821E-002
  -4.5831704134697254E-002
  -4.0951557459675152E-002
  -3.6697804203792116E-002
  -3.2550086942119805E-002
  -2.8507956008840787E-002
  -2.4551231834526024E-002
  -2.0820188477922046E-002
  -1.7206229894248724E-002
  -1.3105204738828299E-002
  -9.2125296785950037E-003
  -4.2455701052652702E-003
   2.6196395423478666E-004
   7.9048625911938715E-004
   1.8007626039304478E-003
   2.6754299009354985E-003
   2.7503452816170348E-003
  -6.0468960521436896E-002
  -6.0181976500508064E-002
  -5.2490038138141737E-002
  -4.5731251787739187E-002
  -3.9844100894407208E-002
  -3.4839387212350262E-002
  -2.9994746370475320E-002
  -2.5613319838790016E-002
  -2.1710540450562012E-002
  -1.8135743513727723E-002
  -1.4287746645199979E-002
  -1.0997290017474202E-002
  -7.7639308707178837E-003
  -1.9023702177289319E-003
   2.4339312847360456E-004
   5.7706939963984253E-004
   1.0300525393645596E-003
   1.7398327209237744E-003
   2.7514273564477700E-003
   3.3265817671916877E-003
   3.2251149124699159E-003
  -4.8186702869916373E-002
  -4.7875710072190332E-002
  -4.0143101204595494E-002
  -3.3628031704375339E-002
  -2.7848581971273344E-002
  -2.2856221663910346E-002
  -1.8429453848436431E-002
  -1.4259081499096767E-002
  -1.1018470100740089E-002
  -7.8139493379334717E-003
  -1.6859214823014977E-003
   2.0880879816353190E-004
   4.8006182233213088E-004
   7.4349085164486376E-004
   1.1022294622570002E-003
   1.6177066168947575E-003
   2.1362755373097344E-003
   2.7062408243444845E-003
   3.6602791860398300E-003
   3.9535095102405521E-003
   3.5886659890778990E-003
  -3.4765941242919762E-002
  -3.4586371007171192E-002
  -2.6826471826239952E-002
  -2.0008775044062736E-002
  -1.5013200023670282E-002
  -1.0895769887172569E-002
  -6.3899005684943154E-003
   1.2953617759597786E-004
   4.2414386218666406E-004
   6.8297291597898136E-004
   9.2851683621434158E-004
   1.2391359818712121E-003
   1.6506282993484624E-003
   2.0356774178407885E-003
   2.4048739340278816E-003
   2.7838626728584684E-003
   3.2249383215245640E-003
   3.7513190586162290E-003
   4.6952031891252435E-003
   4.6469291369802346E-003
   3.9553103827635570E-003
  -1.9364632211054410E-002
  -1.9371198239944230E-002
  -1.2390329740685678E-002
  -2.2877434406403615E-003
   3.5493593412403384E-004
   7.5691842005136368E-004
   1.0656191619456826E-003
   1.3938968885393482E-003
   1.8267470060339388E-003
   2.2221369537615788E-003
   2.5719528700848095E-003
   2.8777894261862811E-003
   3.1586494519746490E-003
   3.4437855116116606E-003
   3.7502729667369646E-003
   4.0962789386047496E-003
   4.5138618006753325E-003
   5.0105373901702041E-003
   5.9675957054427424E-003
   5.4996466698526703E-003
   4.3813085761222831E-003
   2.4489706495435445E-004
   4.1864117147761572E-004
   1.1218808033870865E-003
   1.7461562843046523E-003
   2.3300179279843228E-003
   2.9985705448504940E-003
   3.5078996795051224E-003
   3.9132915384177246E-003
   4.2374121138381597E-003
   4.5184936810786268E-003
   4.7794600275377431E-003
   5.0318978525637692E-003
   5.2860978987037052E-003
   5.5520835371465757E-003
   5.8428821414911250E-003
   6.1771842508686944E-003
   6.5865780376276693E-003
   7.0830203015093216E-003
   8.0384666111224315E-003
   6.8156368551345586E-003
   5.0117167166602947E-003
   4.3860448463651633E-003
   4.0129756642353041E-003
   5.4616342109998564E-003
   6.3922635218642537E-003
   6.5780126896339240E-003
   6.5789294099051357E-003
   6.5527634738542645E-003
   6.5413164130445614E-003
   6.5526306495361248E-003
   6.5878176053187016E-003
   6.6459928439559710E-003
   6.7279935954214420E-003
   6.8364421887960169E-003
   6.9748115369383740E-003
   7.1483318529209231E-003
   7.3661315225492154E-003
   7.6452855873521460E-003
   8.0051338784708562E-003
   8.6052710915893726E-003
   8.5238087881699971E-003
   6.5761470495191692E-003
   6.3325580742734332E-003
   6.8092899839061524E-003
   8.4332323445737867E-003
   9.6858869243291526E-003
   9.3835317657804500E-003
   8.8356606271199796E-003
   8.3240896334926817E-003
   7.9106590722798197E-003
   7.5925728298554705E-003
   7.3586548867730014E-003
   7.1964426883949243E-003
   7.0952076961214184E-003
   7.0474709002663338E-003
   7.0488151004516313E-003
   7.0968081811964090E-003
   7.1913279493762685E-003
   7.3363268188982589E-003
   7.5431783963912456E-003
   7.8598063094293038E-003
   8.2790814120828997E-003
   8.5386889606685612E-003
 -0.11310895261145444     
 -0.11218120361796283     
 -0.11180924494602544     
 -0.11153712381523564     
 -0.11128143423262586     
 -0.11104476305531950     
 -0.11079401561351218     
 -0.11055579190075657     
 -0.11030671476016392     
 -0.11005232582276739     
 -0.10978695608352076     
 -0.10948628113032678     
 -0.10914594917182689     
 -0.10874677277861215     
 -0.10826096016541829     
 -0.10765697834524332     
 -0.10687979851942032     
 -0.10582268849955513     
 -0.10455397120114605     
 -0.10130779772753605     
 -0.10073251999694167     
 -0.11143827286162308     
 -0.11102718579345712     
 -0.10989736550859336     
 -0.10978142861866823     
 -0.10952798836795620     
 -0.10927375772632911     
 -0.10903324007978171     
 -0.10878418070554664     
 -0.10852952970271641     
 -0.10825850012821722     
 -0.10796399591998922     
 -0.10762924532785856     
 -0.10723975805154766     
 -0.10677555138912775     
 -0.10619566822751696     
 -0.10545334491784880     
 -0.10447027225460402     
 -0.10313854314603139     
 -0.10140316934541868     
  -9.7783572446218284E-002
  -9.7953967906261444E-002
 -0.10992149598287738     
 -0.10925720256071265     
 -0.10759574061493925     
 -0.10728109056807637     
 -0.10672944805788295     
 -0.10622218576355295     
 -0.10573242844618562     
 -0.10524660999582799     
 -0.10476104658324505     
 -0.10425737614060333     
 -0.10371815122928443     
 -0.10311894965859467     
 -0.10243107051588869     
 -0.10161196675122608     
 -0.10060743596092649     
  -9.9341299177733294E-002
  -9.7703770925387470E-002
  -9.5539621305269662E-002
  -9.2725771524800257E-002
  -8.8059039379553297E-002
  -8.7687629162346389E-002
 -0.10838105470649245     
 -0.10817999455476907     
 -0.10616016287054045     
 -0.10555607132632427     
 -0.10474824878975407     
 -0.10399259449664802     
 -0.10325160284967339     
 -0.10251108283208665     
 -0.10175067012488777     
 -0.10095262169932095     
 -0.10008640316924719     
  -9.9119237597435295E-002
  -9.8003602980341942E-002
  -9.6676972606310654E-002
  -9.5055981776295442E-002
  -9.3031981894938207E-002
  -9.0500919189367937E-002
  -8.7396634516626492E-002
  -8.3615913020243959E-002
  -7.8109962018228271E-002
  -7.7748907234005390E-002
 -0.10660060716353657     
 -0.10668723487357057     
 -0.10425225317508534     
 -0.10332668359078381     
 -0.10222536956033440     
 -0.10116515478190113     
 -0.10010863753236901     
  -9.9036447059216881E-002
  -9.7926206122077294E-002
  -9.6742565212448284E-002
  -9.5449415303004145E-002
  -9.3993112883386243E-002
  -9.2313126682836727E-002
  -9.0348536359750847E-002
  -8.8056337555769290E-002
  -8.5355659043746673E-002
  -8.2123031631265608E-002
  -7.8166320198537975E-002
  -7.3101905099839756E-002
  -6.6447011621723687E-002
  -6.6089623174315576E-002
 -0.10460457805769438     
 -0.10489720458231155     
 -0.10207818732501840     
 -0.10076610896999776     
  -9.9295262346085503E-002
  -9.7846348995790783E-002
  -9.6382252862604295E-002
  -9.4875524138490527E-002
  -9.3293996623751263E-002
  -9.1600931393082494E-002
  -8.9768502362225402E-002
  -8.7778413088557480E-002
  -8.5577070894971116E-002
  -8.3084494689477359E-002
  -8.0196382201560723E-002
  -7.6724466503849967E-002
  -7.2409154238830986E-002
  -6.7403453315865725E-002
  -6.1687534012372675E-002
  -5.4929937941948857E-002
  -5.4626335551334074E-002
 -0.10236886405816172     
 -0.10275494407901262     
  -9.9528996132579081E-002
  -9.7734591811602933E-002
  -9.5795011388701154E-002
  -9.3846020956639312E-002
  -9.1853308933552577E-002
  -8.9805893474753540E-002
  -8.7715236530540697E-002
  -8.5556197750631544E-002
  -8.3274263412785404E-002
  -8.0799763726939824E-002
  -7.8023720312667591E-002
  -7.4757924536308834E-002
  -7.0960696066453610E-002
  -6.6726331322900678E-002
  -6.1974658383786192E-002
  -5.6691525177007429E-002
  -5.0526265329203138E-002
  -4.2652128566768650E-002
  -4.2233555941897788E-002
  -9.9762406752900074E-002
 -0.10014812964422576     
  -9.6450448815930248E-002
  -9.4050312297490640E-002
  -9.1512535179303911E-002
  -8.8975428463574258E-002
  -8.6470705112683427E-002
  -8.3969628666181517E-002
  -8.1420805603177826E-002
  -7.8751633337418386E-002
  -7.5837168949223530E-002
  -7.2574896815823547E-002
  -6.9085772101956794E-002
  -6.5339361374810889E-002
  -6.1261673252043493E-002
  -5.6827737156109337E-002
  -5.1848543377363623E-002
  -4.5605504107008359E-002
  -3.8632064853528318E-002
  -3.0949205350429568E-002
  -3.0658731772300947E-002
  -9.6583261894853611E-002
  -9.6913105293398152E-002
  -9.2622713416422295E-002
  -8.9508892212401520E-002
  -8.6401414123548043E-002
  -8.3370662181600774E-002
  -8.0358630311977722E-002
  -7.7274696426978692E-002
  -7.3986890877588501E-002
  -7.0578346749927953E-002
  -6.7134652645419762E-002
  -6.3596131476109263E-002
  -5.9906778216861467E-002
  -5.6036458400550125E-002
  -5.1755354376575746E-002
  -4.6550610459592558E-002
  -4.0828419028819521E-002
  -3.4529850626786394E-002
  -2.7661098709830183E-002
  -1.9374114581827327E-002
  -1.8979617566590893E-002
  -9.2551136766474459E-002
  -9.2783424766859676E-002
  -8.7902592769163471E-002
  -8.4185115752261300E-002
  -8.0505557609867093E-002
  -7.6807950677694553E-002
  -7.2953977527747654E-002
  -6.9161744182381232E-002
  -6.5483783159230632E-002
  -6.1870170557563102E-002
  -5.8278063038510915E-002
  -5.4669589882538443E-002
  -5.0644923913190240E-002
  -4.6111365571878705E-002
  -4.1284627081282416E-002
  -3.6095782909192103E-002
  -3.0654802122233177E-002
  -2.4167945765992301E-002
  -1.6728033553627040E-002
  -8.4273406699179303E-003
  -8.0906994198502134E-003
  -8.7598330748827724E-002
  -8.7693961197383055E-002
  -8.2324932550981861E-002
  -7.7864773668704285E-002
  -7.3238004679182123E-002
  -6.8761352403027332E-002
  -6.4545087853539809E-002
  -6.0555042695380680E-002
  -5.6765403941211968E-002
  -5.3079429226646609E-002
  -4.8961560874699279E-002
  -4.4750314418403506E-002
  -4.0448210266442131E-002
  -3.5990012073294456E-002
  -3.1437628565251757E-002
  -2.6372639125908721E-002
  -2.0601255391407385E-002
  -1.4061048388475035E-002
  -6.3486448604571557E-003
   1.5461059918428662E-003
   1.7918453515015050E-003
  -8.1648884008329758E-002
  -8.1586826490024314E-002
  -7.5406681743016180E-002
  -6.9908986944334658E-002
  -6.4798401875903439E-002
  -6.0089725062658340E-002
  -5.5774781209702154E-002
  -5.1593458741821016E-002
  -4.7180610128878163E-002
  -4.2939295386344771E-002
  -3.8788707647884446E-002
  -3.4716303364295424E-002
  -3.0747817621392042E-002
  -2.6397113575754038E-002
  -2.1706097904314433E-002
  -1.6647011414730000E-002
  -1.1253988057745211E-002
  -4.5007823303267903E-003
   6.0475771832755685E-003
   6.7446587416570055E-003
   6.6485440157173599E-003
  -7.3899963420665654E-002
  -7.3744756098544056E-002
  -6.6872163772542056E-002
  -6.1022292048001116E-002
  -5.5780089786432514E-002
  -5.0781478250986181E-002
  -4.5798864949553937E-002
  -4.1165864981217402E-002
  -3.6819191347172826E-002
  -3.2798476023757871E-002
  -2.8989721342204944E-002
  -2.4929562040586481E-002
  -2.0825132916242460E-002
  -1.6566304201108131E-002
  -1.2340532408135185E-002
  -7.5955395600444727E-003
  -2.3688830890235776E-003
   5.9954420268678718E-003
   6.9157591754113543E-003
   7.8857554218491870E-003
   8.0111129995151763E-003
  -6.4707333416655147E-002
  -6.4452757304598957E-002
  -5.7429660969671593E-002
  -5.1347734013188602E-002
  -4.5352199130104305E-002
  -3.9913949127225581E-002
  -3.5016827625370270E-002
  -3.0747942751229891E-002
  -2.6595120686019172E-002
  -2.2544718210344063E-002
  -1.8581120766421658E-002
  -1.4844057859388513E-002
  -1.1225105199234267E-002
  -7.1203120437384523E-003
  -3.2270280023127076E-003
   1.6900578055622775E-003
   6.1818191560736391E-003
   6.7957518404695482E-003
   7.8469294616198403E-003
   8.8084264673330293E-003
   8.8532942588936663E-003
  -5.4541312541126270E-002
  -5.4282105433287431E-002
  -4.6581184392947776E-002