# vtk DataFile Version 2.0
3D Unstructured Grid of Linear Triangles
ASCII
DATASET UNSTRUCTURED_GRID
FIELD FieldData  1
TIME 1 1 double
           0.00000
POINTS     2079 float
      2.50000000E-02  2.00000000E-01  1.00000000E+00
      5.00000000E-02  2.00000000E-01  1.00000000E+00
      7.50000000E-02  2.00000000E-01  1.00000001E+00
      1.00000000E-01  2.00000000E-01  1.00000001E+00
      1.25000000E-01  2.00000000E-01  1.00000001E+00
      1.50000000E-01  2.00000000E-01  1.00000002E+00
      1.75000000E-01  2.00000000E-01  1.00000002E+00
      2.00000000E-01  2.00000000E-01  1.00000003E+00
      2.25000000E-01  2.00000000E-01  1.00000003E+00
      2.50000000E-01  2.00000000E-01  1.00000003E+00
      2.75000000E-01  2.00000000E-01  1.00000004E+00
      3.00000000E-01  2.00000000E-01  1.00000004E+00
      3.25000000E-01  2.00000000E-01  1.00000005E+00
      3.50000000E-01  2.00000000E-01  1.00000005E+00
      3.75000000E-01  2.00000000E-01  1.00000005E+00
      4.00000000E-01  2.00000000E-01  1.00000006E+00
      4.25000000E-01  2.00000000E-01  1.00000006E+00
      4.50000000E-01  2.00000000E-01  1.00000007E+00
      4.75000000E-01  2.00000000E-01  1.00000007E+00
      0.00000000E+00  1.90000000E-01  1.00000000E+00
      2.50000000E-02  1.90000000E-01  1.00000000E+00
      5.00000000E-02  1.90000000E-01  1.00000000E+00
      7.50000000E-02  1.90000000E-01  1.00000001E+00
      1.00000000E-01  1.90000000E-01  1.00000001E+00
      1.25000000E-01  1.90000000E-01  1.00000001E+00
      1.50000000E-01  1.90000000E-01  1.00000002E+00
      1.75000000E-01  1.90000000E-01  1.00000002E+00
      2.00000000E-01  1.90000000E-01  1.00000003E+00
      2.25000000E-01  1.90000000E-01  1.00000003E+00
      2.50000000E-01  1.90000000E-01  1.00000003E+00
      2.75000000E-01  1.90000000E-01  1.00000004E+00
      3.00000000E-01  1.90000000E-01  1.00000004E+00
      3.25000000E-01  1.90000000E-01  1.00000004E+00
      3.50000000E-01  1.90000000E-01  1.00000005E+00
      3.75000000E-01  1.90000000E-01  1.00000005E+00
      4.00000000E-01  1.90000000E-01  1.00000006E+00
      4.25000000E-01  1.90000000E-01  1.00000006E+00
      4.50000000E-01  1.90000000E-01  1.00000006E+00
      4.75000000E-01  1.90000000E-01  1.00000007E+00
      0.00000000E+00  1.80000000E-01  1.00000000E+00
      2.50000000E-02  1.80000000E-01  1.00000000E+00
      5.00000000E-02  1.80000000E-01  1.00000000E+00
      7.50000000E-02  1.80000000E-01  1.00000001E+00
      1.00000000E-01  1.80000000E-01  1.00000001E+00
      1.25000000E-01  1.80000000E-01  1.00000001E+00
      1.50000000E-01  1.80000000E-01  1.00000002E+00
      1.75000000E-01  1.80000000E-01  1.00000002E+00
      2.00000000E-01  1.80000000E-01  1.00000003E+00
      2.25000000E-01  1.80000000E-01  1.00000003E+00
      2.50000000E-01  1.80000000E-01  1.00000003E+00
      2.75000000E-01  1.80000000E-01  1.00000004E+00
      3.00000000E-01  1.80000000E-01  1.00000004E+00
      3.25000000E-01  1.80000000E-01  1.00000004E+00
      3.50000000E-01  1.80000000E-01  1.00000005E+00
      3.75000000E-01  1.80000000E-01  1.00000005E+00
      4.00000000E-01  1.80000000E-01  1.00000006E+00
      4.25000000E-01  1.80000000E-01  1.00000006E+00
      4.50000000E-01  1.80000000E-01  1.00000006E+00
      4.75000000E-01  1.80000000E-01  1.00000007E+00
      0.00000000E+00  1.70000000E-01  1.00000001E+00
      2.50000000E-02  1.70000000E-01  1.00000001E+00
      5.00000000E-02  1.70000000E-01  1.00000001E+00
      7.50000000E-02  1.70000000E-01  1.00000001E+00
      1.00000000E-01  1.70000000E-01  1.00000001E+00
      1.25000000E-01  1.70000000E-01  1.00000001E+00
      1.50000000E-01  1.70000000E-01  1.00000002E+00
      1.75000000E-01  1.70000000E-01  1.00000002E+00
      2.00000000E-01  1.70000000E-01  1.00000003E+00
      2.25000000E-01  1.70000000E-01  1.00000003E+00
      2.50000000E-01  1.70000000E-01  1.00000003E+00
      2.75000000E-01  1.70000000E-01  1.00000004E+00
      3.00000000E-01  1.70000000E-01  1.00000004E+00
      3.25000000E-01  1.70000000E-01  1.00000004E+00
      3.50000000E-01  1.70000000E-01  1.00000005E+00
      3.75000000E-01  1.70000000E-01  1.00000005E+00
      4.00000000E-01  1.70000000E-01  1.00000006E+00
      4.25000000E-01  1.70000000E-01  1.00000006E+00
      4.50000000E-01  1.70000000E-01  1.00000006E+00
      4.75000000E-01  1.70000000E-01  1.00000007E+00
      0.00000000E+00  1.60000000E-01  1.00000001E+00
      2.50000000E-02  1.60000000E-01  1.00000001E+00
      5.00000000E-02  1.60000000E-01  1.00000001E+00
      7.50000000E-02  1.60000000E-01  1.00000001E+00
      1.00000000E-01  1.60000000E-01  1.00000001E+00
      1.25000000E-01  1.60000000E-01  1.00000001E+00
      1.50000000E-01  1.60000000E-01  1.00000002E+00
      1.75000000E-01  1.60000000E-01  1.00000002E+00
      2.00000000E-01  1.60000000E-01  1.00000002E+00
      2.25000000E-01  1.60000000E-01  1.00000003E+00
      2.50000000E-01  1.60000000E-01  1.00000003E+00
      2.75000000E-01  1.60000000E-01  1.00000004E+00
      3.00000000E-01  1.60000000E-01  1.00000004E+00
      3.25000000E-01  1.60000000E-01  1.00000004E+00
      3.50000000E-01  1.60000000E-01  1.00000005E+00
      3.75000000E-01  1.60000000E-01  1.00000005E+00
      4.00000000E-01  1.60000000E-01  1.00000006E+00
      4.25000000E-01  1.60000000E-01  1.00000006E+00
      4.50000000E-01  1.60000000E-01  1.00000006E+00
      4.75000000E-01  1.60000000E-01  1.00000007E+00
      2.50000000E-02  2.00000000E-01  9.75000000E-01
      5.00000000E-02  2.00000000E-01  9.75000003E-01
      7.50000000E-02  2.00000000E-01  9.75000006E-01
      1.00000000E-01  2.00000000E-01  9.75000010E-01
      1.25000000E-01  2.00000000E-01  9.75000014E-01
      1.50000000E-01  2.00000000E-01  9.75000018E-01
      1.75000000E-01  2.00000000E-01  9.75000022E-01
      2.00000000E-01  2.00000000E-01  9.75000026E-01
      2.25000000E-01  2.00000000E-01  9.75000030E-01
      2.50000000E-01  2.00000000E-01  9.75000034E-01
      2.75000000E-01  2.00000000E-01  9.75000038E-01
      3.00000000E-01  2.00000000E-01  9.75000042E-01
      3.25000000E-01  2.00000000E-01  9.75000046E-01
      3.50000000E-01  2.00000000E-01  9.75000049E-01
      3.75000000E-01  2.00000000E-01  9.75000053E-01
      4.00000000E-01  2.00000000E-01  9.75000057E-01
      4.25000000E-01  2.00000000E-01  9.75000061E-01
      4.50000000E-01  2.00000000E-01  9.75000065E-01
      4.75000000E-01  2.00000000E-01  9.75000066E-01
      0.00000000E+00  1.90000000E-01  9.75000000E-01
      2.50000000E-02  1.90000000E-01  9.75000000E-01
      5.00000000E-02  1.90000000E-01  9.75000002E-01
      7.50000000E-02  1.90000000E-01  9.75000006E-01
      1.00000000E-01  1.90000000E-01  9.75000010E-01
      1.25000000E-01  1.90000000E-01  9.75000014E-01
      1.50000000E-01  1.90000000E-01  9.75000018E-01
      1.75000000E-01  1.90000000E-01  9.75000021E-01
      2.00000000E-01  1.90000000E-01  9.75000025E-01
      2.25000000E-01  1.90000000E-01  9.75000029E-01
      2.50000000E-01  1.90000000E-01  9.75000033E-01
      2.75000000E-01  1.90000000E-01  9.75000037E-01
      3.00000000E-01  1.90000000E-01  9.75000041E-01
      3.25000000E-01  1.90000000E-01  9.75000045E-01
      3.50000000E-01  1.90000000E-01  9.75000049E-01
      3.75000000E-01  1.90000000E-01  9.75000053E-01
      4.00000000E-01  1.90000000E-01  9.75000057E-01
      4.25000000E-01  1.90000000E-01  9.75000060E-01
      4.50000000E-01  1.90000000E-01  9.75000064E-01
      4.75000000E-01  1.90000000E-01  9.75000066E-01
      0.00000000E+00  1.80000000E-01  9.75000003E-01
      2.50000000E-02  1.80000000E-01  9.75000002E-01
      5.00000000E-02  1.80000000E-01  9.75000003E-01
      7.50000000E-02  1.80000000E-01  9.75000006E-01
      1.00000000E-01  1.80000000E-01  9.75000010E-01
      1.25000000E-01  1.80000000E-01  9.75000014E-01
      1.50000000E-01  1.80000000E-01  9.75000018E-01
      1.75000000E-01  1.80000000E-01  9.75000021E-01
      2.00000000E-01  1.80000000E-01  9.75000025E-01
      2.25000000E-01  1.80000000E-01  9.75000029E-01
      2.50000000E-01  1.80000000E-01  9.75000033E-01
      2.75000000E-01  1.80000000E-01  9.75000037E-01
      3.00000000E-01  1.80000000E-01  9.75000041E-01
      3.25000000E-01  1.80000000E-01  9.75000045E-01
      3.50000000E-01  1.80000000E-01  9.75000049E-01
      3.75000000E-01  1.80000000E-01  9.75000053E-01
      4.00000000E-01  1.80000000E-01  9.75000057E-01
      4.25000000E-01  1.80000000E-01  9.75000060E-01
      4.50000000E-01  1.80000000E-01  9.75000064E-01
      4.75000000E-01  1.80000000E-01  9.75000066E-01
      0.00000000E+00  1.70000000E-01  9.75000006E-01
      2.50000000E-02  1.70000000E-01  9.75000006E-01
      5.00000000E-02  1.70000000E-01  9.75000006E-01
      7.50000000E-02  1.70000000E-01  9.75000006E-01
      1.00000000E-01  1.70000000E-01  9.75000010E-01
      1.25000000E-01  1.70000000E-01  9.75000014E-01
      1.50000000E-01  1.70000000E-01  9.75000018E-01
      1.75000000E-01  1.70000000E-01  9.75000021E-01
      2.00000000E-01  1.70000000E-01  9.75000025E-01
      2.25000000E-01  1.70000000E-01  9.75000029E-01
      2.50000000E-01  1.70000000E-01  9.75000033E-01
      2.75000000E-01  1.70000000E-01  9.75000037E-01
      3.00000000E-01  1.70000000E-01  9.75000041E-01
      3.25000000E-01  1.70000000E-01  9.75000045E-01
      3.50000000E-01  1.70000000E-01  9.75000049E-01
      3.75000000E-01  1.70000000E-01  9.75000053E-01
      4.00000000E-01  1.70000000E-01  9.75000057E-01
      4.25000000E-01  1.70000000E-01  9.75000060E-01
      4.50000000E-01  1.70000000E-01  9.75000064E-01
      4.75000000E-01  1.70000000E-01  9.75000066E-01
      0.00000000E+00  1.60000000E-01  9.75000008E-01
      2.50000000E-02  1.60000000E-01  9.75000008E-01
      5.00000000E-02  1.60000000E-01  9.75000008E-01
      7.50000000E-02  1.60000000E-01  9.75000008E-01
      1.00000000E-01  1.60000000E-01  9.75000009E-01
      1.25000000E-01  1.60000000E-01  9.75000013E-01
      1.50000000E-01  1.60000000E-01  9.75000017E-01
[...]
POINT_DATA     2079
SCALARS pressure float
LOOKUP_TABLE default
   0.0000000000000000     
   0.0000000000000000     
   0.0000000000000000     
   0.0000000000000000     
   0.0000000000000000     
   0.0000000000000000     
   0.0000000000000000     
   0.0000000000000000     
   0.0000000000000000     
   0.0000000000000000     
   0.0000000000000000     
   0.0000000000000000     
   0.0000000000000000     
   0.0000000000000000     
   0.0000000000000000     
   0.0000000000000000     
   0.0000000000000000     
   0.0000000000000000     
   0.0000000000000000     
   0.0000000000000000     
   0.0000000000000000     
   0.0000000000000000     
   0.0000000000000000     
   0.0000000000000000     
   0.0000000000000000     
   0.0000000000000000     
   0.0000000000000000     
   0.0000000000000000     
   0.0000000000000000     
   0.0000000000000000     
   0.0000000000000000     
   0.0000000000000000     
   0.0000000000000000     
   0.0000000000000000     
   0.0000000000000000     
   0.0000000000000000     
   0.0000000000000000     
   0.0000000000000000     
   0.0000000000000000     
   0.0000000000000000     
   0.0000000000000000     
   0.0000000000000000     
   0.0000000000000000     
   0.0000000000000000     
   0.0000000000000000     
   0.0000000000000000     
   0.0000000000000000     
   0.0000000000000000     
   0.0000000000000000     
   0.0000000000000000     
   0.0000000000000000     
   0.0000000000000000     
   0.0000000000000000     
   0.0000000000000000     
   0.0000000000000000     
   0.0000000000000000     
   0.0000000000000000     
   0.0000000000000000     
   0.0000000000000000     
   0.0000000000000000     
   0.0000000000000000     
   0.0000000000000000     
   0.0000000000000000     
   0.0000000000000000     
   0.0000000000000000     
   0.0000000000000000     
   0.0000000000000000     
   0.0000000000000000     
   0.0000000000000000     
   0.0000000000000000     
   0.0000000000000000     
   0.0000000000000000     
   0.0000000000000000     
   0.0000000000000000     
   0.0000000000000000     
   0.0000000000000000     
   0.0000000000000000     
   0.0000000000000000     
   0.0000000000000000     
   0.0000000000000000     
   0.0000000000000000     
   0.0000000000000000     
   0.0000000000000000     
   0.0000000000000000     
   0.0000000000000000     
   0.0000000000000000     
   0.0000000000000000     
   0.0000000000000000     
   0.0000000000000000     
   0.0000000000000000     
   0.0000000000000000     
   0.0000000000000000     
   0.0000000000000000     
   0.0000000000000000     
   0.0000000000000000     
   0.0000000000000000     
   0.0000000000000000     
   0.0000000000000000     
   0.0000000000000000     
   2.5000000000000022E-002
   2.5000000000000022E-002
   2.5000000000000022E-002
   2.5000000000000022E-002
   2.5000000000000022E-002
   2.5000000000000022E-002
   2.5000000000000022E-002
   2.5000000000000022E-002
   2.5000000000000022E-002
   2.5000000000000022E-002
   2.5000000000000022E-002
   2.5000000000000022E-002
   2.5000000000000022E-002
   2.5000000000000022E-002
   2.5000000000000022E-002
   2.5000000000000022E-002
   2.5000000000000022E-002
   2.5000000000000022E-002
   2.5000000000000022E-002
   2.5000000000000022E-002
   2.5000000000000022E-002
   2.5000000000000022E-002
   2.5000000000000022E-002
   2.5000000000000022E-002
   2.5000000000000022E-002
   2.5000000000000022E-002
   2.5000000000000022E-002
   2.5000000000000022E-002
   2.5000000000000022E-002
   2.5000000000000022E-002
   2.5000000000000022E-002
   2.5000000000000022E-002
   2.5000000000000022E-002
   2.5000000000000022E-002
   2.5000000000000022E-002
   2.5000000000000022E-002
   2.5000000000000022E-002
   2.5000000000000022E-002
   2.5000000000000022E-002
   2.5000000000000022E-002
   2.5000000000000022E-002
   2.5000000000000022E-002
   2.5000000000000022E-002
   2.5000000000000022E-002
   2.5000000000000022E-002
   2.5000000000000022E-002
   2.5000000000000022E-002
   2.5000000000000022E-002
   2.5000000000000022E-002
   2.5000000000000022E-002
   2.5000000000000022E-002
   2.5000000000000022E-002
   2.5000000000000022E-002
   2.5000000000000022E-002
   2.5000000000000022E-002
   2.5000000000000022E-002
   2.5000000000000022E-002
   2.5000000000000022E-002
   2.5000000000000022E-002
   2.5000000000000022E-002
   2.5000000000000022E-002
   2.5000000000000022E-002
   2.5000000000000022E-002
   2.5000000000000022E-002
   2.5000000000000022E-002
   2.5000000000000022E-002
   2.5000000000000022E-002
   2.5000000000000022E-002
   2.5000000000000022E-002
   2.5000000000000022E-002
   2.5000000000000022E-002
   2.5000000000000022E-002
   2.5000000000000022E-002
   2.5000000000000022E-002
   2.5000000000000022E-002
   2.5000000000000022E-002
   2.5000000000000022E-002
   2.5000000000000022E-002
   2.5000000000000022E-002
   2.5000000000000022E-002
   2.5000000000000022E-002
   2.5000000000000022E-002
   2.5000000000000022E-002
   2.5000000000000022E-002
   2.5000000000000022E-002
   2.5000000000000022E-002
   2.5000000000000022E-002
   2.5000000000000022E-002
   2.5000000000000022E-002
   2.5000000000000022E-002
   2.5000000000000022E-002
   2.5000000000000022E-002
   2.5000000000000022E-002
   2.5000000000000022E-002
   2.5000000000000022E-002
   2.5000000000000022E-002
   2.5000000000000022E-002
   2.5000000000000022E-002
   2.5000000000000022E-002
   5.0000000000000044E-002
   5.0000000000000044E-002
   5.0000000000000044E-002
   5.0000000000000044E-002
   5.0000000000000044E-002
   5.0000000000000044E-002
   5.0000000000000044E-002
   5.0000000000000044E-002
   5.0000000000000044E-002
   5.0000000000000044E-002
   5.0000000000000044E-002
   5.0000000000000044E-002
   5.0000000000000044E-002
   5.0000000000000044E-002
   5.0000000000000044E-002
   5.0000000000000044E-002
   5.0000000000000044E-002
   5.0000000000000044E-002
   5.0000000000000044E-002
   5.0000000000000044E-002
   5.0000000000000044E-002
   5.0000000000000044E-002
   5.0000000000000044E-002
   5.0000000000000044E-002
   5.0000000000000044E-002
   5.0000000000000044E-002
   5.0000000000000044E-002
   5.0000000000000044E-002
   5.0000000000000044E-002
   5.0000000000000044E-002
   5.0000000000000044E-002
   5.0000000000000044E-002
   5.0000000000000044E-002
   5.0000000000000044E-002
   5.0000000000000044E-002
   5.0000000000000044E-002
   5.0000000000000044E-002
   5.0000000000000044E-002
   5.0000000000000044E-002
   5.0000000000000044E-002
   5.0000000000000044E-002
   5.0000000000000044E-002
   5.0000000000000044E-002
   5.0000000000000044E-002
   5.0000000000000044E-002
   5.0000000000000044E-002
   5.0000000000000044E-002
   5.0000000000000044E-002
   5.0000000000000044E-002
   5.0000000000000044E-002
   5.0000000000000044E-002
   5.0000000000000044E-002
   5.0000000000000044E-002
   5.0000000000000044E-002
   5.0000000000000044E-002
   5.0000000000000044E-002
   5.0000000000000044E-002
   5.0000000000000044E-002
   5.0000000000000044E-002
   5.0000000000000044E-002
   5.0000000000000044E-002
   5.0000000000000044E-002
   5.0000000000000044E-002
   5.0000000000000044E-002
   5.0000000000000044E-002
   5.0000000000000044E-002
   5.0000000000000044E-002
   5.0000000000000044E-002
   5.0000000000000044E-002
   5.0000000000000044E-002
   5.0000000000000044E-002
   5.0000000000000044E-002
   5.0000000000000044E-002
   5.0000000000000044E-002
   5.0000000000000044E-002
   5.0000000000000044E-002
   5.0000000000000044E-002
   5.0000000000000044E-002
   5.0000000000000044E-002
   5.0000000000000044E-002
   5.0000000000000044E-002
   5.0000000000000044E-002
   5.0000000000000044E-002
   5.0000000000000044E-002
   5.0000000000000044E-002
   5.0000000000000044E-002
   5.0000000000000044E-002
   5.0000000000000044E-002
   5.0000000000000044E-002
   5.0000000000000044E-002
   5.0000000000000044E-002
   5.0000000000000044E-002
   5.0000000000000044E-002
   5.0000000000000044E-002
   5.0000000000000044E-002
   5.0000000000000044E-002
   5.0000000000000044E-002
   5.0000000000000044E-002
   5.0000000000000044E-002
   7.4999999999999956E-002
   7.4999999999999956E-002
   7.4999999999999956E-002
   7.4999999999999956E-002
   7.4999999999999956E-002
   7.4999999999999956E-002
   7.4999999999999956E-002
   7.4999999999999956E-002
   7.4999999999999956E-002
   7.4999999999999956E-002
   7.4999999999999956E-002
   7.4999999999999956E-002
   7.4999999999999956E-002
   7.4999999999999956E-002
   7.4999999999999956E-002
   7.4999999999999956E-002
   7.4999999999999956E-002
   7.4999999999999956E-002
   7.4999999999999956E-002
   7.4999999999999956E-002
   7.4999999999999956E-002
   7.4999999999999956E-002
   7.4999999999999956E-002
   7.4999999999999956E-002
   7.4999999999999956E-002
   7.4999999999999956E-002
   7.4999999999999956E-002
   7.4999999999999956E-002
   7.4999999999999956E-002
   7.4999999999999956E-002
   7.4999999999999956E-002
   7.4999999999999956E-002
   7.4999999999999956E-002
   7.4999999999999956E-002
   7.4999999999999956E-002
   7.4999999999999956E-002
   7.4999999999999956E-002
   7.4999999999999956E-002
   7.4999999999999956E-002
   7.4999999999999956E-002
   7.4999999999999956E-002
   7.4999999999999956E-002
   7.4999999999999956E-002
   7.4999999999999956E-002
   7.4999999999999956E-002
   7.4999999999999956E-002
   7.4999999999999956E-002
   7.4999999999999956E-002
   7.4999999999999956E-002
   7.4999999999999956E-002
   7.4999999999999956E-002
   7.4999999999999956E-002
   7.4999999999999956E-002
   7.4999999999999956E-002
   7.4999999999999956E-002
   7.4999999999999956E-002
   7.4999999999999956E-002
   7.4999999999999956E-002
   7.4999999999999956E-002
   7.4999999999999956E-002
   7.4999999999999956E-002
   7.4999999999999956E-002
   7.4999999999999956E-002
   7.4999999999999956E-002
   7.4999999999999956E-002
   7.4999999999999956E-002
   7.4999999999999956E-002
   7.4999999999999956E-002
   7.4999999999999956E-002
   7.4999999999999956E-002
   7.4999999999999956E-002
   7.4999999999999956E-002
   7.4999999999999956E-002
   7.4999999999999956E-002
   7.4999999999999956E-002
   7.4999999999999956E-002
   7.4999999999999956E-002
   7.4999999999999956E-002
   7.4999999999999956E-002
   7.4999999999999956E-002
   7.4999999999999956E-002
   7.4999999999999956E-002
   7.4999999999999956E-002
   7.4999999999999956E-002
   7.4999999999999956E-002
   7.4999999999999956E-002
   7.4999999999999956E-002
   7.4999999999999956E-002
   7.4999999999999956E-002
   7.4999999999999956E-002
   7.4999999999999956E-002
   7.4999999999999956E-002
   7.4999999999999956E-002
   7.4999999999999956E-002
   7.4999999999999956E-002
   7.4999999999999956E-002
   7.4999999999999956E-002
   7.4999999999999956E-002
   7.4999999999999956E-002
   9.9999999999999978E-002
   9.9999999999999978E-002
   9.9999999999999978E-002
   9.9999999999999978E-002
   9.9999999999999978E-002
   9.9999999999999978E-002
   9.9999999999999978E-002
   9.9999999999999978E-002
   9.9999999999999978E-002
   9.9999999999999978E-002
   9.9999999999999978E-002
   9.9999999999999978E-002
   9.9999999999999978E-002
   9.9999999999999978E-002
   9.9999999999999978E-002
   9.9999999999999978E-002
   9.9999999999999978E-002
   9.9999999999999978E-002
   9.9999999999999978E-002
   9.9999999999999978E-002
   9.9999999999999978E-002
   9.9999999999999978E-002
   9.9999999999999978E-002
   9.9999999999999978E-002
   9.9999999999999978E-002
   9.9999999999999978E-002
   9.9999999999999978E-002
   9.9999999999999978E-002
   9.9999999999999978E-002
   9.9999999999999978E-002
   9.9999999999999978E-002
   9.9999999999999978E-002
   9.9999999999999978E-002
   9.9999999999999978E-002
   9.9999999999999978E-002
   9.9999999999999978E-002
   9.9999999999999978E-002
   9.9999999999999978E-002
   9.9999999999999978E-002
   9.9999999999999978E-002
   9.9999999999999978E-002
   9.9999999999999978E-002
   9.9999999999999978E-002
   9.9999999999999978E-002
   9.9999999999999978E-002
   9.9999999999999978E-002
   9.9999999999999978E-002
   9.9999999999999978E-002
   9.9999999999999978E-002
   9.9999999999999978E-002
   9.9999999999999978E-002
   9.9999999999999978E-002
   9.9999999999999978E-002
   9.9999999999999978E-002
   9.9999999999999978E-002
   9.9999999999999978E-002
   9.9999999999999978E-002
   9.9999999999999978E-002
   9.9999999999999978E-002
   9.9999999999999978E-002
   9.9999999999999978E-002
   9.9999999999999978E-002
   9.9999999999999978E-002
   9.9999999999999978E-002
   9.9999999999999978E-002
   9.9999999999999978E-002
   9.9999999999999978E-002
   9.9999999999999978E-002
   9.9999999999999978E-002
   9.9999999999999978E-002
   9.9999999999999978E-002
   9.9999999999999978E-002
   9.9999999999999978E-002
   9.9999999999999978E-002
   9.9999999999999978E-002
   9.9999999999999978E-002
   9.9999999999999978E-002
   9.9999999999999978E-002
   9.9999999999999978E-002
   9.9999999999999978E-002
   9.9999999999999978E-002
   9.9999999999999978E-002
   9.9999999999999978E-002
   9.9999999999999978E-002
   9.9999999999999978E-002
   9.9999999999999978E-002
   9.9999999999999978E-002
   9.9999999999999978E-002
   9.9999999999999978E-002
   9.9999999999999978E-002
   9.9999999999999978E-002
   9.9999999999999978E-002
   9.9999999999999978E-002
   9.9999999999999978E-002
   9.9999999999999978E-002
   9.9999999999999978E-002
   9.9999999999999978E-002
   9.9999999999999978E-002
   9.9999999999999978E-002
  0.12500000000000000     
  0.12500000000000000     
  0.12500000000000000     
  0.12500000000000000     
  0.12500000000000000     
  0.12500000000000000     
  0.12500000000000000     
  0.12500000000000000     
  0.12500000000000000     
  0.12500000000000000     
  0.12500000000000000     
  0.12500000000000000     
  0.12500000000000000     
  0.12500000000000000     
  0.12500000000000000     
  0.12500000000000000     
  0.12500000000000000     
  0.12500000000000000     
  0.12500000000000000     
  0.12500000000000000     
  0.12500000000000000     
  0.12500000000000000     
  0.12500000000000000     
  0.12500000000000000     
  0.12500000000000000     
  0.12500000000000000     
  0.12500000000000000     
  0.12500000000000000     
  0.12500000000000000     
  0.12500000000000000     
  0.12500000000000000     
  0.12500000000000000     
  0.12500000000000000     
  0.12500000000000000     
  0.12500000000000000     
  0.12500000000000000     
  0.12500000000000000     
  0.12500000000000000     
  0.12500000000000000     
  0.12500000000000000     
  0.12500000000000000     
  0.12500000000000000     
  0.12500000000000000     
  0.12500000000000000     
  0.12500000000000000     
  0.12500000000000000     
  0.12500000000000000     
  0.12500000000000000     
  0.12500000000000000     
  0.12500000000000000     
  0.12500000000000000     
  0.12500000000000000     
  0.12500000000000000     
  0.12500000000000000     
  0.12500000000000000     
  0.12500000000000000     
  0.12500000000000000     
  0.12500000000000000     
  0.12500000000000000     
  0.12500000000000000     
  0.12500000000000000     
  0.12500000000000000     
  0.12500000000000000     
  0.12500000000000000     
  0.12500000000000000     
  0.12500000000000000     
  0.12500000000000000     
  0.12500000000000000     
  0.12500000000000000     
  0.12500000000000000     
  0.12500000000000000     
  0.12500000000000000     
  0.12500000000000000     
  0.12500000000000000     
  0.12500000000000000     
  0.12500000000000000     
  0.12500000000000000     
  0.12500000000000000     
  0.12500000000000000     
  0.12500000000000000     
  0.12500000000000000     
  0.12500000000000000     
  0.12500000000000000     
  0.12500000000000000     
  0.12500000000000000     
  0.12500000000000000     
  0.12500000000000000     
  0.12500000000000000     
  0.12500000000000000     
  0.12500000000000000     
  0.12500000000000000     
  0.12500000000000000     
  0.12500000000000000     
  0.12500000000000000     
  0.12500000000000000     
  0.12500000000000000     
  0.12500000000000000     
  0.12500000000000000     
  0.12500000000000000     
  0.15000000000000002     
  0.15000000000000002     
  0.15000000000000002     
  0.15000000000000002     
  0.15000000000000002     
  0.15000000000000002     
  0.15000000000000002     
  0.15000000000000002     
  0.15000000000000002     
  0.15000000000000002     
  0.15000000000000002     
  0.15000000000000002     
  0.15000000000000002     
  0.15000000000000002     
  0.15000000000000002     
  0.15000000000000002     
  0.15000000000000002     
  0.15000000000000002     
  0.15000000000000002     
  0.15000000000000002     
  0.15000000000000002     
  0.15000000000000002     
  0.15000000000000002     
  0.15000000000000002     
  0.15000000000000002     
  0.15000000000000002     
  0.15000000000000002     
  0.15000000000000002     
  0.15000000000000002     
  0.15000000000000002     
  0.15000000000000002     
  0.15000000000000002     
  0.15000000000000002     
  0.15000000000000002     
  0.15000000000000002     
  0.15000000000000002     
  0.15000000000000002     
  0.15000000000000002     
  0.15000000000000002     
  0.15000000000000002     
  0.15000000000000002     
  0.15000000000000002     
  0.15000000000000002     
  0.15000000000000002     
  0.15000000000000002     
  0.15000000000000002     
  0.15000000000000002     
  0.15000000000000002     
  0.15000000000000002     
  0.15000000000000002     
  0.15000000000000002     
  0.15000000000000002     
  0.15000000000000002     
  0.15000000000000002     
  0.15000000000000002     
  0.15000000000000002     
  0.15000000000000002     
  0.15000000000000002     
  0.15000000000000002     
  0.15000000000000002     
  0.15000000000000002     
  0.15000000000000002     
  0.15000000000000002     
  0.15000000000000002     
  0.15000000000000002     
  0.15000000000000002     
  0.15000000000000002     
  0.15000000000000002     
  0.15000000000000002     
  0.15000000000000002     
  0.15000000000000002     
  0.15000000000000002     
  0.15000000000000002     
  0.15000000000000002     
  0.15000000000000002     
  0.15000000000000002     
  0.15000000000000002     
  0.15000000000000002     
  0.15000000000000002     
  0.15000000000000002     
  0.15000000000000002     
  0.15000000000000002     
  0.15000000000000002     
  0.15000000000000002     
  0.15000000000000002     
  0.15000000000000002     
  0.15000000000000002     
  0.15000000000000002     
  0.15000000000000002     
  0.15000000000000002     
  0.15000000000000002     
  0.15000000000000002     
  0.15000000000000002     
  0.15000000000000002     
  0.15000000000000002     
  0.15000000000000002     
  0.15000000000000002     
  0.15000000000000002     
  0.15000000000000002     
  0.17500000000000004     
  0.17500000000000004     
  0.17500000000000004     
  0.17500000000000004     
  0.17500000000000004     
  0.17500000000000004     
  0.17500000000000004     
  0.17500000000000004     
  0.17500000000000004     
  0.17500000000000004     
  0.17500000000000004     
  0.17500000000000004     
  0.17500000000000004     
  0.17500000000000004     
  0.17500000000000004     
  0.17500000000000004     
  0.17500000000000004     
  0.17500000000000004     
  0.17500000000000004     
  0.17500000000000004     
  0.17500000000000004     
  0.17500000000000004     
  0.17500000000000004     
  0.17500000000000004     
  0.17500000000000004     
  0.17500000000000004     
  0.17500000000000004     
  0.17500000000000004     
  0.17500000000000004     
  0.17500000000000004     
  0.17500000000000004     
  0.17500000000000004     
  0.17500000000000004     
  0.17500000000000004     
  0.17500000000000004     
  0.17500000000000004     
  0.17500000000000004     
  0.17500000000000004     
  0.17500000000000004     
  0.17500000000000004     
  0.17500000000000004     
  0.17500000000000004     
  0.17500000000000004     
  0.17500000000000004     
  0.17500000000000004     