# vtk DataFile Version 2.0
3D Unstructured Grid of Linear Triangles
ASCII
DATASET UNSTRUCTURED_GRID
FIELD FieldData  1
TIME 1 1 double
        1805.01532
POINTS     1008 float
      5.00000000E-01  1.00000000E+01  1.00000000E+00
      1.00000000E+00  1.00000000E+01  1.00000004E+00
      1.50000000E+00  1.00000000E+01  1.00000011E+00
      2.00000000E+00  1.00000000E+01  1.00000017E+00
      2.50000000E+00  1.00000000E+01  1.00000024E+00
      3.00000000E+00  1.00000000E+01  1.00000030E+00
      3.50000000E+00  1.00000000E+01  1.00000037E+00
      4.00000000E+00  1.00000000E+01  1.00000043E+00
      4.50000000E+00  1.00000000E+01  1.00000050E+00
      5.00000000E+00  1.00000000E+01  1.00000056E+00
      5.50000000E+00  1.00000000E+01  1.00000063E+00
      6.00000000E+00  1.00000000E+01  1.00000069E+00
      6.50000000E+00  1.00000000E+01  1.00000076E+00
      7.00000000E+00  1.00000000E+01  1.00000082E+00
      7.50000000E+00  1.00000000E+01  1.00000084E+00
      0.00000000E+00  9.50000000E+00  1.00000000E+00
      5.00000000E-01  9.50000000E+00  1.00000000E+00
      1.00000000E+00  9.50000000E+00  1.00000003E+00
      1.50000000E+00  9.50000000E+00  1.00000010E+00
      2.00000000E+00  9.50000000E+00  1.00000016E+00
      2.50000000E+00  9.50000000E+00  1.00000023E+00
      3.00000000E+00  9.50000000E+00  1.00000029E+00
      3.50000000E+00  9.50000000E+00  1.00000036E+00
      4.00000000E+00  9.50000000E+00  1.00000042E+00
      4.50000000E+00  9.50000000E+00  1.00000049E+00
      5.00000000E+00  9.50000000E+00  1.00000055E+00
      5.50000000E+00  9.50000000E+00  1.00000062E+00
      6.00000000E+00  9.50000000E+00  1.00000068E+00
      6.50000000E+00  9.50000000E+00  1.00000075E+00
      7.00000000E+00  9.50000000E+00  1.00000081E+00
      7.50000000E+00  9.50000000E+00  1.00000084E+00
      0.00000000E+00  9.00000000E+00  1.00000004E+00
      5.00000000E-01  9.00000000E+00  1.00000003E+00
      1.00000000E+00  9.00000000E+00  1.00000004E+00
      1.50000000E+00  9.00000000E+00  1.00000010E+00
      2.00000000E+00  9.00000000E+00  1.00000016E+00
      2.50000000E+00  9.00000000E+00  1.00000023E+00
      3.00000000E+00  9.00000000E+00  1.00000029E+00
      3.50000000E+00  9.00000000E+00  1.00000036E+00
      4.00000000E+00  9.00000000E+00  1.00000042E+00
      4.50000000E+00  9.00000000E+00  1.00000049E+00
      5.00000000E+00  9.00000000E+00  1.00000055E+00
      5.50000000E+00  9.00000000E+00  1.00000062E+00
      6.00000000E+00  9.00000000E+00  1.00000068E+00
      6.50000000E+00  9.00000000E+00  1.00000075E+00
      7.00000000E+00  9.00000000E+00  1.00000081E+00
      7.50000000E+00  9.00000000E+00  1.00000084E+00
      0.00000000E+00  8.50000000E+00  1.00000007E+00
      5.00000000E-01  8.50000000E+00  1.00000007E+00
      1.00000000E+00  8.50000000E+00  1.00000007E+00
      1.50000000E+00  8.50000000E+00  1.00000009E+00
      2.00000000E+00  8.50000000E+00  1.00000015E+00
      2.50000000E+00  8.50000000E+00  1.00000022E+00
      3.00000000E+00  8.50000000E+00  1.00000028E+00
      3.50000000E+00  8.50000000E+00  1.00000035E+00
      4.00000000E+00  8.50000000E+00  1.00000041E+00
      4.50000000E+00  8.50000000E+00  1.00000048E+00
      5.00000000E+00  8.50000000E+00  1.00000054E+00
      5.50000000E+00  8.50000000E+00  1.00000061E+00
      6.00000000E+00  8.50000000E+00  1.00000067E+00
      6.50000000E+00  8.50000000E+00  1.00000074E+00
      7.00000000E+00  8.50000000E+00  1.00000080E+00
      7.50000000E+00  8.50000000E+00  1.00000084E+00
      5.00000000E-01  1.00000000E+01  9.94000000E-01
      1.00000000E+00  1.00000000E+01  9.94000043E-01
      1.50000000E+00  1.00000000E+01  9.94000108E-01
      2.00000000E+00  1.00000000E+01  9.94000173E-01
      2.50000000E+00  1.00000000E+01  9.94000238E-01
      3.00000000E+00  1.00000000E+01  9.94000303E-01
      3.50000000E+00  1.00000000E+01  9.94000368E-01
      4.00000000E+00  1.00000000E+01  9.94000433E-01
      4.50000000E+00  1.00000000E+01  9.94000498E-01
      5.00000000E+00  1.00000000E+01  9.94000563E-01
      5.50000000E+00  1.00000000E+01  9.94000628E-01
      6.00000000E+00  1.00000000E+01  9.94000693E-01
      6.50000000E+00  1.00000000E+01  9.94000758E-01
      7.00000000E+00  1.00000000E+01  9.94000823E-01
      7.50000000E+00  1.00000000E+01  9.94000845E-01
      0.00000000E+00  9.50000000E+00  9.94000000E-01
      5.00000000E-01  9.50000000E+00  9.94000000E-01
      1.00000000E+00  9.50000000E+00  9.94000033E-01
      1.50000000E+00  9.50000000E+00  9.94000098E-01
      2.00000000E+00  9.50000000E+00  9.94000163E-01
      2.50000000E+00  9.50000000E+00  9.94000227E-01
      3.00000000E+00  9.50000000E+00  9.94000292E-01
      3.50000000E+00  9.50000000E+00  9.94000358E-01
      4.00000000E+00  9.50000000E+00  9.94000423E-01
      4.50000000E+00  9.50000000E+00  9.94000488E-01
      5.00000000E+00  9.50000000E+00  9.94000553E-01
      5.50000000E+00  9.50000000E+00  9.94000618E-01
      6.00000000E+00  9.50000000E+00  9.94000683E-01
      6.50000000E+00  9.50000000E+00  9.94000747E-01
      7.00000000E+00  9.50000000E+00  9.94000812E-01
      7.50000000E+00  9.50000000E+00  9.94000845E-01
      0.00000000E+00  9.00000000E+00  9.94000043E-01
      5.00000000E-01  9.00000000E+00  9.94000033E-01
      1.00000000E+00  9.00000000E+00  9.94000043E-01
      1.50000000E+00  9.00000000E+00  9.94000098E-01
      2.00000000E+00  9.00000000E+00  9.94000163E-01
      2.50000000E+00  9.00000000E+00  9.94000227E-01
      3.00000000E+00  9.00000000E+00  9.94000292E-01
      3.50000000E+00  9.00000000E+00  9.94000358E-01
      4.00000000E+00  9.00000000E+00  9.94000423E-01
      4.50000000E+00  9.00000000E+00  9.94000488E-01
      5.00000000E+00  9.00000000E+00  9.94000553E-01
      5.50000000E+00  9.00000000E+00  9.94000618E-01
      6.00000000E+00  9.00000000E+00  9.94000683E-01
      6.50000000E+00  9.00000000E+00  9.94000747E-01
      7.00000000E+00  9.00000000E+00  9.94000812E-01
      7.50000000E+00  9.00000000E+00  9.94000845E-01
      0.00000000E+00  8.50000000E+00  9.94000065E-01
      5.00000000E-01  8.50000000E+00  9.94000065E-01
      1.00000000E+00  8.50000000E+00  9.94000065E-01
      1.50000000E+00  8.50000000E+00  9.94000087E-01
      2.00000000E+00  8.50000000E+00  9.94000152E-01
      2.50000000E+00  8.50000000E+00  9.94000217E-01
      3.00000000E+00  8.50000000E+00  9.94000282E-01
      3.50000000E+00  8.50000000E+00  9.94000347E-01
      4.00000000E+00  8.50000000E+00  9.94000412E-01
      4.50000000E+00  8.50000000E+00  9.94000477E-01
      5.00000000E+00  8.50000000E+00  9.94000542E-01
      5.50000000E+00  8.50000000E+00  9.94000607E-01
      6.00000000E+00  8.50000000E+00  9.94000672E-01
      6.50000000E+00  8.50000000E+00  9.94000737E-01
      7.00000000E+00  8.50000000E+00  9.94000802E-01
      7.50000000E+00  8.50000000E+00  9.94000845E-01
      5.00000000E-01  1.00000000E+01  9.82000000E-01
      1.00000000E+00  1.00000000E+01  9.82000043E-01
      1.50000000E+00  1.00000000E+01  9.82000108E-01
      2.00000000E+00  1.00000000E+01  9.82000173E-01
      2.50000000E+00  1.00000000E+01  9.82000238E-01
      3.00000000E+00  1.00000000E+01  9.82000303E-01
      3.50000000E+00  1.00000000E+01  9.82000368E-01
      4.00000000E+00  1.00000000E+01  9.82000433E-01
      4.50000000E+00  1.00000000E+01  9.82000498E-01
      5.00000000E+00  1.00000000E+01  9.82000563E-01
      5.50000000E+00  1.00000000E+01  9.82000628E-01
      6.00000000E+00  1.00000000E+01  9.82000693E-01
      6.50000000E+00  1.00000000E+01  9.82000758E-01
      7.00000000E+00  1.00000000E+01  9.82000823E-01
      7.50000000E+00  1.00000000E+01  9.82000845E-01
      0.00000000E+00  9.50000000E+00  9.82000000E-01
      5.00000000E-01  9.50000000E+00  9.82000000E-01
      1.00000000E+00  9.50000000E+00  9.82000033E-01
      1.50000000E+00  9.50000000E+00  9.82000098E-01
      2.00000000E+00  9.50000000E+00  9.82000163E-01
      2.50000000E+00  9.50000000E+00  9.82000227E-01
      3.00000000E+00  9.50000000E+00  9.82000292E-01
      3.50000000E+00  9.50000000E+00  9.82000358E-01
      4.00000000E+00  9.50000000E+00  9.82000423E-01
      4.50000000E+00  9.50000000E+00  9.82000488E-01
      5.00000000E+00  9.50000000E+00  9.82000553E-01
      5.50000000E+00  9.50000000E+00  9.82000618E-01
      6.00000000E+00  9.50000000E+00  9.82000683E-01
      6.50000000E+00  9.50000000E+00  9.82000747E-01
      7.00000000E+00  9.50000000E+00  9.82000812E-01
      7.50000000E+00  9.50000000E+00  9.82000845E-01
      0.00000000E+00  9.00000000E+00  9.82000043E-01
      5.00000000E-01  9.00000000E+00  9.82000033E-01
      1.00000000E+00  9.00000000E+00  9.82000043E-01
      1.50000000E+00  9.00000000E+00  9.82000098E-01
      2.00000000E+00  9.00000000E+00  9.82000163E-01
      2.50000000E+00  9.00000000E+00  9.82000227E-01
      3.00000000E+00  9.00000000E+00  9.82000292E-01
      3.50000000E+00  9.00000000E+00  9.82000358E-01
      4.00000000E+00  9.00000000E+00  9.82000423E-01
      4.50000000E+00  9.00000000E+00  9.82000488E-01
      5.00000000E+00  9.00000000E+00  9.82000553E-01
      5.50000000E+00  9.00000000E+00  9.82000618E-01
      6.00000000E+00  9.00000000E+00  9.82000683E-01
      6.50000000E+00  9.00000000E+00  9.82000747E-01
      7.00000000E+00  9.00000000E+00  9.82000812E-01
      7.50000000E+00  9.00000000E+00  9.82000845E-01
      0.00000000E+00  8.50000000E+00  9.82000065E-01
      5.00000000E-01  8.50000000E+00  9.82000065E-01
      1.00000000E+00  8.50000000E+00  9.82000065E-01
      1.50000000E+00  8.50000000E+00  9.82000087E-01
      2.00000000E+00  8.50000000E+00  9.82000152E-01
      2.50000000E+00  8.50000000E+00  9.82000217E-01
      3.00000000E+00  8.50000000E+00  9.82000282E-01
      3.50000000E+00  8.50000000E+00  9.82000347E-01
      4.00000000E+00  8.50000000E+00  9.82000412E-01
      4.50000000E+00  8.50000000E+00  9.82000477E-01
      5.00000000E+00  8.50000000E+00  9.82000542E-01
      5.50000000E+00  8.50000000E+00  9.82000607E-01
[...]
POINT_DATA     1008
SCALARS pressure float
LOOKUP_TABLE default
   4.8119667381286948E-009
   2.0224462717921361E-007
   1.7807942148497256E-006
   2.6769089397972343E-006
   1.3837698638654735E-006
   3.3556745433205604E-007
   3.5942349447696492E-006
   5.4739368627997358E-006
   2.0370837709734964E-006
   5.9194058722062398E-007
   4.8255458833164343E-007
   2.3615375334265729E-007
   1.3446948641225912E-007
   8.5162857419562885E-008
   7.1823936099109963E-008
   3.6526788488897091E-007
   3.7777686399093388E-007
   3.7850509333050120E-007
   7.6154686762601643E-007
   1.4133255600113751E-006
   1.2574140465706043E-006
   7.0088221589094790E-007
   1.1285481480567491E-006
   4.1567713245495706E-006
   4.2905803898678843E-006
   1.2244487528956748E-006
   5.4182228647695694E-007
   2.8153410383701431E-007
   1.4830695629771459E-007
   9.3099655849777796E-008
   7.2201056452010335E-008
   2.6473354183168394E-006
   2.1376565951531932E-006
   1.0039157716730415E-006
   5.6326660931323963E-007
   4.5022350102025437E-007
   2.4060124264117104E-007
   3.7150051234146541E-007
   3.5489055395357473E-007
   7.4675101187998099E-007
   2.2890471797702890E-006
   1.7583138967963825E-006
   2.4780057648480371E-007
   1.7921741357759507E-007
   8.1522569844260099E-008
   5.1520430282163581E-008
   4.8790024349725369E-008
   3.7897546829221032E-006
   3.8147549985510982E-006
   2.6289602248354335E-006
   3.4981718164123839E-007
   6.6401377352133237E-007
   3.5786150375944625E-007
   4.0896258258625004E-009
   4.2165514510063321E-009
   5.9015295738426311E-009
   8.7382713927544064E-009
   6.8754393444895616E-009
   3.0236476649504769E-009
   1.8780437928205142E-009
   1.1884427452175589E-009
   7.7332085234472682E-010
   5.0188753606900086E-010
   6.0000201231551146E-003
   6.0002162171315515E-003
   6.0017664742631786E-003
   6.0026484141955600E-003
   6.0013809127824943E-003
   6.0003597997063084E-003
   6.0035590830743888E-003
   6.0054192685712821E-003
   6.0020570368266831E-003
   6.0006073570641576E-003
   6.0004846210291824E-003
   6.0002387000754548E-003
   6.0001360138050895E-003
   6.0000860212701106E-003
   6.0000724962787884E-003
   6.0003872010941425E-003
   6.0003947844400503E-003
   6.0003891995823212E-003
   6.0007679478226612E-003
   6.0014092013316832E-003
   6.0012517245433975E-003
   6.0007057297817943E-003
   6.0011458428068055E-003
   6.0041205962737595E-003
   6.0042443985172328E-003
   6.0012319067503294E-003
   6.0005436403816033E-003
   6.0002828363047642E-003
   6.0001495199353471E-003
   6.0000938113368178E-003
   6.0000727199830389E-003
   6.0026335960671343E-003
   6.0021306091245924E-003
   6.0010119620536821E-003
   6.0005688240404248E-003
   6.0004578797494259E-003
   6.0002519055198621E-003
   6.0003764945032812E-003
   6.0003657447484822E-003
   6.0007661633615745E-003
   6.0022740049174095E-003
   6.0017424362758792E-003
   6.0002570427422647E-003
   6.0001813852542073E-003
   6.0000836319483346E-003
   6.0000527538956825E-003
   6.0000494202867875E-003
   6.0037624847000849E-003
   6.0037813351992847E-003
   6.0026043536071045E-003
   6.0003671034604064E-003
   6.0006617797547903E-003
   6.0003614611510965E-003
   6.0000170503425945E-003
   6.0000176221420565E-003
   6.0000246353001246E-003
   6.0000363090240783E-003
   6.0000285725287147E-003
   6.0000126377122154E-003
   6.0000078440600796E-003
   6.0000049675278787E-003
   6.0000032339545244E-003
   6.0000021023095783E-003
   1.8000050396083999E-002
   1.8000245381138761E-002
   1.8001735007245570E-002
   1.8002586003501124E-002
   1.8001375215761985E-002
   1.8000408217320980E-002
   1.8003477429739203E-002
   1.8005290300346637E-002
   1.8002084870802647E-002
   1.8000639447976224E-002
   1.8000491613734487E-002
   1.8000245357266787E-002
   1.8000140244273821E-002
   1.8000088517357481E-002
   1.8000074512862944E-002
   1.8000431770656657E-002
   1.8000430591956666E-002
   1.8000413340250255E-002
   1.8000781943067288E-002
   1.8001398533688519E-002
   1.8001240321946714E-002
   1.8000719318411261E-002
   1.8001176562950794E-002
   1.8004034182934881E-002
   1.8004139945064286E-002
   1.8001243665449092E-002
   1.8000550073909511E-002
   1.8000287288396356E-002
   1.8000153209197255E-002
   1.8000096096295302E-002
   1.8000074444968376E-002
   1.8002596686333902E-002
   1.8002111840935246E-002
   1.8001028345336956E-002
   1.8000584263890406E-002
   1.8000476374015053E-002
   1.8000275640931897E-002
   1.8000388638021180E-002
   1.8000389303759034E-002
   1.8000800894354640E-002
   1.8002237513574035E-002
   1.8001707653096069E-002
   1.8000275420844977E-002
   1.8000186936578656E-002
   1.8000088495731797E-002
   1.8000055703191357E-002
   1.8000051165780549E-002
   1.8003692753354245E-002
   1.8003701863718621E-002
   1.8002550060953491E-002
   1.8000402886744815E-002
   1.8000662989588322E-002
   1.8000371597711323E-002
   1.8000042492524786E-002
   1.8000044118945867E-002
   1.8000061435279213E-002
   1.8000089491763200E-002
   1.8000070464232808E-002
   1.8000031637710478E-002
   1.8000019617159559E-002
   1.8000012449308211E-002
   1.8000008114350426E-002
   1.8000005300932431E-002
   3.6000094870284119E-002
   3.6000287460916360E-002
   3.6001690532491547E-002
   3.6002497054082643E-002
   3.6001366739200014E-002
   3.6000476126630591E-002
   3.6003361209452314E-002
   3.6005104642915141E-002
   3.6002120432279176E-002
   3.6000684994503533E-002
   3.6000502099243444E-002
   3.6000255133560539E-002
   3.6000146531539226E-002
   3.6000092274202984E-002
   3.6000077561300164E-002
   3.6000495287927842E-002
   3.6000481788813404E-002
   3.6000448593231732E-002
   3.6000801840601317E-002
   3.6001383070820306E-002
   3.6001224494315080E-002
   3.6000739326312536E-002
   3.6001218404360789E-002
   3.6003909658608453E-002
   3.6003990769603908E-002
   3.6001259064415425E-002
   3.6000559606962329E-002
   3.6000293969560157E-002
   3.6000158732231814E-002
   3.6000099560569973E-002
   3.6000077082612013E-002
   3.6002543491624669E-002
   3.6002084410314085E-002
   3.6001051191945237E-002
   3.6000607042971811E-002
   3.6000503029910473E-002
   3.6000309771436548E-002
   3.6000407003030553E-002
   3.6000423732790165E-002
   3.6000849202233620E-002
   3.6002185177339545E-002
   3.6001658733875293E-002
   3.6000301515025646E-002
   3.6000195358351396E-002
   3.6000095744458151E-002
   3.6000060151211280E-002
   3.6000053870635249E-002
   3.6003591504869890E-002
   3.6003587498508259E-002
   3.6002473077375807E-002
   3.6000453323419529E-002
   3.6000665819367644E-002
   3.6000387029768849E-002
   3.6000079503718203E-002
   3.6000083077100523E-002
   3.6000115002325625E-002
   3.6000164657098738E-002
   3.6000129764908316E-002
   3.6000059556763567E-002
   3.6000036886581759E-002
   3.6000023480955129E-002
   3.6000015332153752E-002
   3.6000010089319474E-002
   6.0000152375434219E-002
   6.0000340595558969E-002
   6.0001636005032277E-002
   6.0002386708815247E-002
   6.0001355594189239E-002
   6.0000558405502114E-002
   6.0003217124486821E-002
   6.0004871038454366E-002
   6.0002157376467483E-002
   6.0000741047462502E-002
   6.0000516014759420E-002
   6.0000267790086714E-002
   6.0000154804744001E-002
   6.0000097304951108E-002
   6.0000081668526578E-002
   6.0000573992871724E-002
   6.0000545646546541E-002
   6.0000493818987144E-002
   6.0000826490310570E-002
   6.0001363451598365E-002
   6.0001205584668829E-002
   6.0000765238376788E-002
   6.0001266993556811E-002
   6.0003752627146925E-002
   6.0003804928336089E-002
   6.0001275829170607E-002
   6.0000572057574232E-002
   6.0000302870200015E-002
   6.0000166072673514E-002
   6.0000104243481789E-002
   6.0000080687882575E-002
   6.0002476421981941E-002
   6.0002049150623037E-002
   6.0001078705723701E-002
   6.0000636646603392E-002
   6.0000536670537903E-002
   6.0000352715083492E-002
   6.0000431664070861E-002
   6.0000467920766479E-002
   6.0000907109328760E-002
   6.0002119605453062E-002
   6.0001599093015882E-002
   6.0000333774433263E-002
   6.0000206716722605E-002
   6.0000105320896238E-002
   6.0000066120917593E-002
   6.0000057626212328E-002
   6.0003462693738692E-002
   6.0003443548209301E-002
   6.0002378119303201E-002
   6.0000515102793431E-002
   6.0000671242707151E-002
   6.0000407934416668E-002
   6.0000126830699205E-002
   6.0000133544328538E-002
   6.0000183383651227E-002
   6.0000256865681952E-002
   6.0000202698713277E-002
   6.0000095662496040E-002
   6.0000059210245857E-002
   6.0000037843602007E-002
   6.0000024771166727E-002
   6.0000016455799901E-002
   9.0000221332724922E-002
   9.0000402569097485E-002
   9.0001574860949951E-002
   9.0002261037329515E-002
   9.0001341975355462E-002
   9.0000649201709165E-002
   9.0003052860111399E-002
   9.0004599977371549E-002
   9.0002188903580929E-002
   9.0000804002251647E-002
   9.0000533188687878E-002
   9.0000283031638248E-002
   9.0000164970040292E-002
   9.0000103622978264E-002
   9.0000086869213250E-002
   9.0000663400581327E-002
   9.0000618951755665E-002
   9.0000547531486605E-002
   9.0000854597782565E-002
   9.0001340507022604E-002
   9.0001185104948228E-002
   9.0000796292073471E-002
   9.0001317538046841E-002
   9.0003569782625067E-002
   9.0003591753943499E-002
   9.0001291521356469E-002
   9.0000587131411305E-002
   9.0000313957126876E-002
   9.0000175203504271E-002
   9.0000110189381297E-002
   9.0000085326631729E-002
   9.0002398349792470E-002
   9.0002007119313068E-002
   9.0001108895626195E-002
   9.0000672321691136E-002
   9.0000575913744135E-002
   9.0000402635580137E-002
   9.0000462570679993E-002
   9.0000520380048757E-002
   9.0000970148531589E-002
   9.0002043865538395E-002
   9.0001532561939879E-002
   9.0000370445341482E-002
   9.0000221033017053E-002
   9.0000117146782785E-002
   9.0000073634488892E-002
   9.0000062537041278E-002
   9.0003311307506675E-002
   9.0003276372053811E-002
   9.0002270589347746E-002
   9.0000584539240522E-002
   9.0000680233113986E-002
   9.0000434412567137E-002
   9.0000182976670284E-002
   9.0000194246547607E-002
   9.0000264021391080E-002
   9.0000360414875913E-002
   9.0000284924806148E-002
   9.0000138944249436E-002
   9.0000086037988508E-002
   9.0000055261665587E-002
   9.0000036288503768E-002
   9.0000024382883001E-002
  0.12000028693033134     
  0.12000045993105916     
  0.12000152073051147     
  0.12000214785030594     
  0.12000132874965054     
  0.12000072786995136     
  0.12000290425146784     
  0.12000435066128534     
  0.12000220671498436     
  0.12000085951524014     
  0.12000054997811442     
  0.12000029765267067     
  0.12000017493539916     
  0.12000010996713728     
  0.12000009213943563     
  0.12000074344571228     
  0.12000068574948149     
  0.12000059818769630     
  0.12000088008576790     
  0.12000131927056690     
  0.12000116767848780     
  0.12000082576190219     
  0.12000135843512072     
  0.12000340057818926     
  0.12000339752307969     
  0.12000130231717922     
  0.12000060158831571     
  0.12000032496700529     
  0.12000018427566658     
  0.12000011622381095     
  0.12000009009676392     
  0.12000232620950557     
  0.12000196726350212     
  0.12000113506779685     
  0.12000070643232341     
  0.12000061234460463     
  0.12000044882397506     
  0.12000049332900761     
  0.12000056977217212     
  0.12000102416453028     
  0.12000197435890175     
  0.12000147377195625     
  0.12000040356287871     
  0.12000023537581868     
  0.12000012880813882     
  0.12000008119018991     
  0.12000006765725033     
  0.12000317039336388     
  0.12000312206341597     
  0.12000217395040332     
  0.12000064669533902     
  0.12000069112612183     
  0.12000046106159008     
  0.12000023608563110     
  0.12000025231215498     
  0.12000033940194707     
  0.12000045238464105     
  0.12000035834375297     
  0.12000018014604227     
  0.12000011173606588     
  0.12000007211363332     
  0.12000004751148712     
  0.12000003227367578     
  0.18000040926778213     
  0.18000056317141647     
  0.18000143070360075     
  0.18000195349045409     
  0.18000130391760594     
  0.18000085666532750     
  0.18000264766461471     
  0.18000390725323220     
  0.18000220920758675     
  0.18000095125558721     
  0.18000058212857842     
  0.18000032529359880     
  0.18000019434317396     
  0.18000012271721799     
  0.18000010286307441     
  0.18000088095145919     
  0.18000080140795849     
  0.18000069062189186     
  0.18000092420318048     
  0.18000128174598404     
  0.18000114078725535     
  0.18000087978888699     
  0.18000141563627853     
  0.18000309954586394     
  0.18000305977099762     
  0.18000131166402070     
  0.18000062850259130     
  0.18000034666415837     
  0.18000020221783228     
  0.18000012851962463     
  0.18000010001909778     
  0.18000219721390237     
  0.18000189379894338     
  0.18000117704969451     
  0.18000076981232124     
  0.18000067758760918     
  0.18000053117345605     
  0.18000055380543883     
  0.18000065950620395     
  0.18000110869310951     
  0.18000185219938922     
  0.18000137635911057     
  0.18000046044742260     
  0.18000026388065535     
  0.18000015162404734     
  0.18000009638649753     
  0.18000007846250621     
  0.18000291524682946     
  0.18000284988842602     
  0.18000201026935286     
  0.18000075010278696     
  0.18000071767412612     
  0.18000051432791223     
  0.18000033361691886     
  0.18000036050317936     
  0.18000047483257262     
  0.18000060570365195     
  0.18000048186464471     
  0.18000025617166115     
  0.18000015988154167     
  0.18000010417815060     
  0.18000006914326352     
  0.18000004792373747     
  0.24000051887611568     
  0.24000065246437444     
  0.24000136053740959     
  0.24000179566887914     
  0.24000128118463629     
  0.24000095287825665     
  0.24000243452313638     
  0.24000353001106092     
  0.24000218118987171     
  0.24000102014047983     
  0.24000061164121009     
  0.24000035081635532     
  0.24000021298002713     
  0.24000013548961446     
  0.24000011378577424     
  0.24000099080940848     
  0.24000089784028500     
  0.24000077215176491     
  0.24000096131017495     
  0.24000125026812841     
  0.24000112189648357     
  0.24000092721725971     
  0.24000144930306477     
  0.24000284021799867     
  0.24000277610081933     
  0.24000130978123749     
  0.24000065257219574     
  0.24000036772657343     
  0.24000021982612527     
  0.24000014102212305     
  0.24000011032534960     
  0.24000208619404334     
  0.24000182793944394     
  0.24000120880509210     
  0.24000082672012055     
  0.24000073448970238     
  0.24000060270574591     
  0.24000061171807172     
  0.24000073787381465     
  0.24000116960571724     
  0.24000174831702240     
  0.24000129925153110     
  0.24000050765132269     
  0.24000029163289285     
  0.24000017372898286     
  0.24000011159855372     
  0.24000008981651916     
  0.24000269488978054     
  0.24000261733279604     
  0.24000187695107889     
  0.24000083432650127     
  0.24000074752620745     
  0.24000056646943729     
  0.24000042150264184     
  0.24000045851408169     
  0.24000059146626285     
  0.24000072648579857     
  0.24000058077950284     
  0.24000032413773525     
  0.24000020413461573     
  0.24000013426593406     
  0.24000008979091630     
  0.24000006339174962     
  0.39000074787684874     
  0.39000082978307393     
  0.39000125150583298     
  0.39000152246670444     
  0.39000123575024592     
  0.39000110028334023     
  0.39000204801141047     
  0.39000280719527119     
  0.39000202750276053     
  0.39000111667428394     
  0.39000067367696617     
  0.39000040720111778     
  0.39000025680191985     
  0.39000016740739457     
  0.39000014181779324     
  0.39000118075481682     
  0.39000106837461707     
  0.39000093279333958     
  0.39000103044554746     
  0.39000119529789562     
  0.39000110082542294     
  0.39000101824413091     
  0.39000146085485704     
  0.39000234469387801     
  0.39000225682027539     
  0.39000127235552345     
  0.39000070033316364     
  0.39000041692985299     
  0.39000026213833455     
  0.39000017280895927     
  0.39000013754008211     
  0.39000186999244002     
  0.39000169354500791     
  0.39000125530192614     
  0.39000094179970457     
  0.39000084660068507     
  0.39000074289601855     
  0.39000074190861078     
  0.39000088805599875     
  0.39000124453904644     
  0.39000155368508388     
  0.39000117334482892     
  0.39000059251451830     
  0.39000035623144075     
  0.39000022573700821     
  0.39000014933248345     
  0.39000011997503675     
  0.39000226296027080     
  0.39000218721607222     
  0.39000165075463317     
  0.39000097253140387     
  0.39000082921947965     
  0.39000068827673301     
  0.39000060275972653     
  0.39000066009012008     
  0.39000080875776078     
  0.39000091858608049     
  0.39000074416747471     
  0.39000045971961611     
  0.39000029876160774     
  0.39000020131409280     
  0.39000013755060814     
  0.39000010103455757     
  0.54000091672241013     
  0.54000095796768111     
  0.54000119774016209     
  0.54000136026997669     
  0.54000120296594545     
  0.54000116694341593     
  0.54000178609424210     
  0.54000230810888661     
  0.54000184642103222     
  0.54000114515500164     
  0.54000071700508323     
  0.54000045331261837     
  0.54000029609978173     
  0.54000019844744351     
  0.54000016992232780     
  0.54000128699267114     
  0.54000117814371229     
  0.54000104786302050     
  0.54000108064903285     
  0.54000116459681002     
  0.54000109776394289     
  0.54000107857265611     
  0.54000143050686145     
  0.54000199306440144     
  0.54000190118727098     
  0.54000121978856819     
  0.54000073326924858     
  0.54000045991777035     
  0.54000030132814203     
  0.54000020427157269     
  0.54000016544479501     
  0.54000171610320069     
  0.54000159261330749     
  0.54000127917657004     
  0.54000102652249704     
  0.54000093062620258     
  0.54000084748272248     
  0.54000084748709143     
  0.54000098931629692     
  0.54000126498089485     
  0.54000141597644968     
  0.54000109617109981     
  0.54000064959330640     
  0.54000041199091109     
  0.54000027276666174     
  0.54000018567341168     
  0.54000015081897168     
  0.54000196358055841     
  0.54000189325761938     
  0.54000151041219713     
  0.54000106225965538     
  0.54000090561774028     
  0.54000079328853556     
  0.54000074413095878     
  0.54000081048770643     
  0.54000094923808395     
  0.54000102006138617     
  0.54000083826390155     
  0.54000055832435634     
  0.54000037536948897     
  0.54000025897698922     
  0.54000018073037193     
  0.54000013703794958     
  0.84000112990989306     
  0.84000111875292549     
  0.84000117765932136     
  0.84000122406585398     
  0.84000117103382621     
  0.84000119665870110     
  0.84000148337965175     
  0.84000172208375468     
  0.84000151843014759     
  0.84000110248625082     
  0.84000076132718771     
  0.84000052217472154     
  0.84000036335232198     
  0.84000025700213532     
  0.84000022515471151     
  0.84000136862435681     
  0.84000128389189865     
  0.84000118133756496     
  0.84000114733979747     
  0.84000115120596042     
  0.84000111496626895     
  0.84000113480448158     
  0.84000133336307559     
  0.84000157516597040     
  0.84000149196802454     
  0.84000111271616640     
  0.84000076570051407     
  0.84000052668749681     
  0.84000036925233323     
  0.84000026389582150     
  0.84000022085972847     
  0.84000152959880758     
  0.84000146693859390     
  0.84000129605771934     
  0.84000112949419103     
  0.84000104170083822     
  0.84000098405548584     
  0.84000098879331830     
  0.84000108799745687     
  0.84000123129808890     
  0.84000124651408681     
  0.84000101521499682     
  0.84000071229930040     
  0.84000049680653388     
  0.84000035166245501     