# vtk DataFile Version 2.0
3D Unstructured Grid of Linear Triangles
ASCII
DATASET UNSTRUCTURED_GRID
FIELD FieldData  1
TIME 1 1 double
        3600.00000
POINTS     1008 float
      5.00000000E-01  1.00000000E+01  1.00000000E+00
      1.00000000E+00  1.00000000E+01  1.00000004E+00
      1.50000000E+00  1.00000000E+01  1.00000011E+00
      2.00000000E+00  1.00000000E+01  1.00000017E+00
      2.50000000E+00  1.00000000E+01  1.00000024E+00
      3.00000000E+00  1.00000000E+01  1.00000030E+00
      3.50000000E+00  1.00000000E+01  1.00000037E+00
      4.00000000E+00  1.00000000E+01  1.00000043E+00
      4.50000000E+00  1.00000000E+01  1.00000050E+00
      5.00000000E+00  1.00000000E+01  1.00000056E+00
      5.50000000E+00  1.00000000E+01  1.00000063E+00
      6.00000000E+00  1.00000000E+01  1.00000069E+00
      6.50000000E+00  1.00000000E+01  1.00000076E+00
      7.00000000E+00  1.00000000E+01  1.00000082E+00
      7.50000000E+00  1.00000000E+01  1.00000084E+00
      0.00000000E+00  9.50000000E+00  1.00000000E+00
      5.00000000E-01  9.50000000E+00  1.00000000E+00
      1.00000000E+00  9.50000000E+00  1.00000003E+00
      1.50000000E+00  9.50000000E+00  1.00000010E+00
      2.00000000E+00  9.50000000E+00  1.00000016E+00
      2.50000000E+00  9.50000000E+00  1.00000023E+00
      3.00000000E+00  9.50000000E+00  1.00000029E+00
      3.50000000E+00  9.50000000E+00  1.00000036E+00
      4.00000000E+00  9.50000000E+00  1.00000042E+00
      4.50000000E+00  9.50000000E+00  1.00000049E+00
      5.00000000E+00  9.50000000E+00  1.00000055E+00
      5.50000000E+00  9.50000000E+00  1.00000062E+00
      6.00000000E+00  9.50000000E+00  1.00000068E+00
      6.50000000E+00  9.50000000E+00  1.00000075E+00
      7.00000000E+00  9.50000000E+00  1.00000081E+00
      7.50000000E+00  9.50000000E+00  1.00000084E+00
      0.00000000E+00  9.00000000E+00  1.00000004E+00
      5.00000000E-01  9.00000000E+00  1.00000003E+00
      1.00000000E+00  9.00000000E+00  1.00000004E+00
      1.50000000E+00  9.00000000E+00  1.00000010E+00
      2.00000000E+00  9.00000000E+00  1.00000016E+00
      2.50000000E+00  9.00000000E+00  1.00000023E+00
      3.00000000E+00  9.00000000E+00  1.00000029E+00
      3.50000000E+00  9.00000000E+00  1.00000036E+00
      4.00000000E+00  9.00000000E+00  1.00000042E+00
      4.50000000E+00  9.00000000E+00  1.00000049E+00
      5.00000000E+00  9.00000000E+00  1.00000055E+00
      5.50000000E+00  9.00000000E+00  1.00000062E+00
      6.00000000E+00  9.00000000E+00  1.00000068E+00
      6.50000000E+00  9.00000000E+00  1.00000075E+00
      7.00000000E+00  9.00000000E+00  1.00000081E+00
      7.50000000E+00  9.00000000E+00  1.00000084E+00
      0.00000000E+00  8.50000000E+00  1.00000007E+00
      5.00000000E-01  8.50000000E+00  1.00000007E+00
      1.00000000E+00  8.50000000E+00  1.00000007E+00
      1.50000000E+00  8.50000000E+00  1.00000009E+00
      2.00000000E+00  8.50000000E+00  1.00000015E+00
      2.50000000E+00  8.50000000E+00  1.00000022E+00
      3.00000000E+00  8.50000000E+00  1.00000028E+00
      3.50000000E+00  8.50000000E+00  1.00000035E+00
      4.00000000E+00  8.50000000E+00  1.00000041E+00
      4.50000000E+00  8.50000000E+00  1.00000048E+00
      5.00000000E+00  8.50000000E+00  1.00000054E+00
      5.50000000E+00  8.50000000E+00  1.00000061E+00
      6.00000000E+00  8.50000000E+00  1.00000067E+00
      6.50000000E+00  8.50000000E+00  1.00000074E+00
      7.00000000E+00  8.50000000E+00  1.00000080E+00
      7.50000000E+00  8.50000000E+00  1.00000084E+00
      5.00000000E-01  1.00000000E+01  9.94000000E-01
      1.00000000E+00  1.00000000E+01  9.94000043E-01
      1.50000000E+00  1.00000000E+01  9.94000108E-01
      2.00000000E+00  1.00000000E+01  9.94000173E-01
      2.50000000E+00  1.00000000E+01  9.94000238E-01
      3.00000000E+00  1.00000000E+01  9.94000303E-01
      3.50000000E+00  1.00000000E+01  9.94000368E-01
      4.00000000E+00  1.00000000E+01  9.94000433E-01
      4.50000000E+00  1.00000000E+01  9.94000498E-01
      5.00000000E+00  1.00000000E+01  9.94000563E-01
      5.50000000E+00  1.00000000E+01  9.94000628E-01
      6.00000000E+00  1.00000000E+01  9.94000693E-01
      6.50000000E+00  1.00000000E+01  9.94000758E-01
      7.00000000E+00  1.00000000E+01  9.94000823E-01
      7.50000000E+00  1.00000000E+01  9.94000845E-01
      0.00000000E+00  9.50000000E+00  9.94000000E-01
      5.00000000E-01  9.50000000E+00  9.94000000E-01
      1.00000000E+00  9.50000000E+00  9.94000033E-01
      1.50000000E+00  9.50000000E+00  9.94000098E-01
      2.00000000E+00  9.50000000E+00  9.94000163E-01
      2.50000000E+00  9.50000000E+00  9.94000227E-01
      3.00000000E+00  9.50000000E+00  9.94000292E-01
      3.50000000E+00  9.50000000E+00  9.94000358E-01
      4.00000000E+00  9.50000000E+00  9.94000423E-01
      4.50000000E+00  9.50000000E+00  9.94000488E-01
      5.00000000E+00  9.50000000E+00  9.94000553E-01
      5.50000000E+00  9.50000000E+00  9.94000618E-01
      6.00000000E+00  9.50000000E+00  9.94000683E-01
      6.50000000E+00  9.50000000E+00  9.94000747E-01
      7.00000000E+00  9.50000000E+00  9.94000812E-01
      7.50000000E+00  9.50000000E+00  9.94000845E-01
      0.00000000E+00  9.00000000E+00  9.94000043E-01
      5.00000000E-01  9.00000000E+00  9.94000033E-01
      1.00000000E+00  9.00000000E+00  9.94000043E-01
      1.50000000E+00  9.00000000E+00  9.94000098E-01
      2.00000000E+00  9.00000000E+00  9.94000163E-01
      2.50000000E+00  9.00000000E+00  9.94000227E-01
      3.00000000E+00  9.00000000E+00  9.94000292E-01
      3.50000000E+00  9.00000000E+00  9.94000358E-01
      4.00000000E+00  9.00000000E+00  9.94000423E-01
      4.50000000E+00  9.00000000E+00  9.94000488E-01
      5.00000000E+00  9.00000000E+00  9.94000553E-01
      5.50000000E+00  9.00000000E+00  9.94000618E-01
      6.00000000E+00  9.00000000E+00  9.94000683E-01
      6.50000000E+00  9.00000000E+00  9.94000747E-01
      7.00000000E+00  9.00000000E+00  9.94000812E-01
      7.50000000E+00  9.00000000E+00  9.94000845E-01
      0.00000000E+00  8.50000000E+00  9.94000065E-01
      5.00000000E-01  8.50000000E+00  9.94000065E-01
      1.00000000E+00  8.50000000E+00  9.94000065E-01
      1.50000000E+00  8.50000000E+00  9.94000087E-01
      2.00000000E+00  8.50000000E+00  9.94000152E-01
      2.50000000E+00  8.50000000E+00  9.94000217E-01
      3.00000000E+00  8.50000000E+00  9.94000282E-01
      3.50000000E+00  8.50000000E+00  9.94000347E-01
      4.00000000E+00  8.50000000E+00  9.94000412E-01
      4.50000000E+00  8.50000000E+00  9.94000477E-01
      5.00000000E+00  8.50000000E+00  9.94000542E-01
      5.50000000E+00  8.50000000E+00  9.94000607E-01
      6.00000000E+00  8.50000000E+00  9.94000672E-01
      6.50000000E+00  8.50000000E+00  9.94000737E-01
      7.00000000E+00  8.50000000E+00  9.94000802E-01
      7.50000000E+00  8.50000000E+00  9.94000845E-01
      5.00000000E-01  1.00000000E+01  9.82000000E-01
      1.00000000E+00  1.00000000E+01  9.82000043E-01
      1.50000000E+00  1.00000000E+01  9.82000108E-01
      2.00000000E+00  1.00000000E+01  9.82000173E-01
      2.50000000E+00  1.00000000E+01  9.82000238E-01
      3.00000000E+00  1.00000000E+01  9.82000303E-01
      3.50000000E+00  1.00000000E+01  9.82000368E-01
      4.00000000E+00  1.00000000E+01  9.82000433E-01
      4.50000000E+00  1.00000000E+01  9.82000498E-01
      5.00000000E+00  1.00000000E+01  9.82000563E-01
      5.50000000E+00  1.00000000E+01  9.82000628E-01
      6.00000000E+00  1.00000000E+01  9.82000693E-01
      6.50000000E+00  1.00000000E+01  9.82000758E-01
      7.00000000E+00  1.00000000E+01  9.82000823E-01
      7.50000000E+00  1.00000000E+01  9.82000845E-01
      0.00000000E+00  9.50000000E+00  9.82000000E-01
      5.00000000E-01  9.50000000E+00  9.82000000E-01
      1.00000000E+00  9.50000000E+00  9.82000033E-01
      1.50000000E+00  9.50000000E+00  9.82000098E-01
      2.00000000E+00  9.50000000E+00  9.82000163E-01
      2.50000000E+00  9.50000000E+00  9.82000227E-01
      3.00000000E+00  9.50000000E+00  9.82000292E-01
      3.50000000E+00  9.50000000E+00  9.82000358E-01
      4.00000000E+00  9.50000000E+00  9.82000423E-01
      4.50000000E+00  9.50000000E+00  9.82000488E-01
      5.00000000E+00  9.50000000E+00  9.82000553E-01
      5.50000000E+00  9.50000000E+00  9.82000618E-01
      6.00000000E+00  9.50000000E+00  9.82000683E-01
      6.50000000E+00  9.50000000E+00  9.82000747E-01
      7.00000000E+00  9.50000000E+00  9.82000812E-01
      7.50000000E+00  9.50000000E+00  9.82000845E-01
      0.00000000E+00  9.00000000E+00  9.82000043E-01
      5.00000000E-01  9.00000000E+00  9.82000033E-01
      1.00000000E+00  9.00000000E+00  9.82000043E-01
      1.50000000E+00  9.00000000E+00  9.82000098E-01
      2.00000000E+00  9.00000000E+00  9.82000163E-01
      2.50000000E+00  9.00000000E+00  9.82000227E-01
      3.00000000E+00  9.00000000E+00  9.82000292E-01
      3.50000000E+00  9.00000000E+00  9.82000358E-01
      4.00000000E+00  9.00000000E+00  9.82000423E-01
      4.50000000E+00  9.00000000E+00  9.82000488E-01
      5.00000000E+00  9.00000000E+00  9.82000553E-01
      5.50000000E+00  9.00000000E+00  9.82000618E-01
      6.00000000E+00  9.00000000E+00  9.82000683E-01
      6.50000000E+00  9.00000000E+00  9.82000747E-01
      7.00000000E+00  9.00000000E+00  9.82000812E-01
      7.50000000E+00  9.00000000E+00  9.82000845E-01
      0.00000000E+00  8.50000000E+00  9.82000065E-01
      5.00000000E-01  8.50000000E+00  9.82000065E-01
      1.00000000E+00  8.50000000E+00  9.82000065E-01
      1.50000000E+00  8.50000000E+00  9.82000087E-01
      2.00000000E+00  8.50000000E+00  9.82000152E-01
      2.50000000E+00  8.50000000E+00  9.82000217E-01
      3.00000000E+00  8.50000000E+00  9.82000282E-01
      3.50000000E+00  8.50000000E+00  9.82000347E-01
      4.00000000E+00  8.50000000E+00  9.82000412E-01
      4.50000000E+00  8.50000000E+00  9.82000477E-01
      5.00000000E+00  8.50000000E+00  9.82000542E-01
      5.50000000E+00  8.50000000E+00  9.82000607E-01
[...]
POINT_DATA     1008
SCALARS pressure float
LOOKUP_TABLE default
   3.8319897592859933E-009
   3.4725526180483960E-007
   1.4990021248608561E-006
   2.1299055316389593E-006
   1.3446447432266152E-006
   4.4994094649825057E-007
   2.5770260404467850E-006
   3.8207518204252572E-006
   1.3471339192419036E-006
   7.1798865535761845E-007
   6.3847771399459461E-007
   3.3532857543308031E-007
   2.1471880803937665E-007
   1.4013915983165745E-007
   1.1961519955019593E-007
   5.2388416405653809E-007
   5.7769404581925820E-007
   5.9451202056744332E-007
   8.7434320309725744E-007
   1.2219437153358972E-006
   1.1956198762566136E-006
   9.5730393301910854E-007
   9.6993928736465311E-007
   2.9740683621131647E-006
   3.1618923190664988E-006
   1.0338727296754097E-006
   7.0662601745471987E-007
   3.9108655911498689E-007
   2.3612555349027736E-007
   1.5350200692653701E-007
   1.2024954006008844E-007
   1.9319308669515535E-006
   1.7800434079499800E-006
   1.0603453528902259E-006
   8.5705159204412869E-007
   6.9246783459664200E-007
   3.6373804593518213E-007
   5.0538426340111070E-007
   5.0067875473929093E-007
   5.6295532200413117E-007
   1.7327656331146393E-006
   1.4147868292160721E-006
   2.7006173714045185E-007
   2.5395055310309171E-007
   1.2647000467386644E-007
   8.5849819611415575E-008
   8.1131705820530335E-008
   2.6365735839335640E-006
   2.7747216520393041E-006
   2.1088099401502252E-006
   5.1740454160523836E-007
   1.0027700642097923E-006
   5.4160718849180497E-007
   3.3334865997823406E-009
   3.0452677192012880E-009
   3.5513613371335286E-009
   5.1173827982064119E-009
   4.2080627517401660E-009
   2.0667586223803992E-009
   1.4472034154691073E-009
   9.4995624347873009E-010
   6.3570677126765590E-010
   4.2030103373460127E-010
   6.0000200819002236E-003
   6.0003584206798572E-003
   6.0014893428601583E-003
   6.0021098172069066E-003
   6.0013404674126034E-003
   6.0004688516141144E-003
   6.0025534156124705E-003
   6.0037824032015460E-003
   6.0013652341759805E-003
   6.0007257275492493E-003
   6.0006385997149235E-003
   6.0003374378316291E-003
   6.0002158726261230E-003
   6.0001408575098870E-003
   6.0001201679699707E-003
   6.0005387585162148E-003
   6.0005888030219721E-003
   6.0006017187804175E-003
   6.0008782861821278E-003
   6.0012205628404390E-003
   6.0011911877457871E-003
   6.0009559057107404E-003
   6.0009822140450119E-003
   6.0029483946949834E-003
   6.0031269309585500E-003
   6.0010394342171116E-003
   6.0007048247640131E-003
   6.0003915517926575E-003
   6.0002366278061638E-003
   6.0001538498790606E-003
   6.0001205669289589E-003
   6.0019244857574677E-003
   6.0017735831415005E-003
   6.0010652219140747E-003
   6.0008583255065024E-003
   6.0006971123258198E-003
   6.0003739994385873E-003
   6.0005087074897811E-003
   6.0005060684947664E-003
   6.0005782339099091E-003
   6.0017210827871138E-003
   6.0014017774147003E-003
   6.0002777308227903E-003
   6.0002549893796815E-003
   6.0001283023318926E-003
   6.0000868781211903E-003
   6.0000815394191638E-003
   6.0026205287049576E-003
   6.0027525800136492E-003
   6.0020913222780126E-003
   6.0005323591917998E-003
   6.0009966623227450E-003
   6.0005435985909118E-003
   6.0000174034599242E-003
   6.0000159423678661E-003
   6.0000185968293361E-003
   6.0000266612657430E-003
   6.0000219246496489E-003
   6.0000108299664463E-003
   6.0000075731394542E-003
   6.0000049765331345E-003
   6.0000033316973062E-003
   6.0000022052724856E-003
   1.8000052042331873E-002
   1.8000381280592608E-002
   1.8001468881832516E-002
   1.8002067130594834E-002
   1.8001331713439251E-002
   1.8000505765683811E-002
   1.8002501012576281E-002
   1.8003696723209225E-002
   1.8001394669561206E-002
   1.8000741271506970E-002
   1.8000639510153685E-002
   1.8000342046225078E-002
   1.8000218641667051E-002
   1.8000142632699140E-002
   1.8000121579435029E-002
   1.8000568822323468E-002
   1.8000611678848762E-002
   1.8000617254811502E-002
   1.8000886571451595E-002
   1.8001216509221304E-002
   1.8001182099969943E-002
   1.8000954801163128E-002
   1.8001004346233560E-002
   1.8002890463974006E-002
   1.8003051561305800E-002
   1.8001048274641669E-002
   1.8000702187636743E-002
   1.8000393022559309E-002
   1.8000238192579423E-002
   1.8000154949206322E-002
   1.8000121526736156E-002
   1.8001905465110653E-002
   1.8001758595737615E-002
   1.8001074739265672E-002
   1.8000862699836289E-002
   1.8000707563081447E-002
   1.8000394711092833E-002
   1.8000516187738763E-002
   1.8000517681180571E-002
   1.8000606334553425E-002
   1.8001694589201263E-002
   1.8001374346814272E-002
   1.8000292570563101E-002
   1.8000257577607242E-002
   1.8000132211257985E-002
   1.8000089168632903E-002
   1.8000082603542147E-002
   1.8002581679961278E-002
   1.8002702741924528E-002
   1.8002054048368129E-002
   1.8000561961736144E-002
   1.8000987051565880E-002
   1.8000548797740969E-002
   1.8000044866058804E-002
   1.8000041304735356E-002
   1.8000048191972221E-002
   1.8000068289978945E-002
   1.8000056166477065E-002
   1.8000028113126378E-002
   1.8000019603025365E-002
   1.8000012913960039E-002
   1.8000008652491940E-002
   1.8000005748640607E-002
   3.6000098573478641E-002
   3.6000414297885849E-002
   3.6001439964771266E-002
   3.6002006305772105E-002
   3.6001319020235512E-002
   3.6000557346467572E-002
   3.6002426470212678E-002
   3.6003573493750989E-002
   3.6001433605454040E-002
   3.6000763391484066E-002
   3.6000640961215226E-002
   3.6000348696606309E-002
   3.6000222728604682E-002
   3.6000145280593761E-002
   3.6000123698826735E-002
   3.6000611766726719E-002
   3.6000644475752776E-002
   3.6000639976293200E-002
   3.6000898319078302E-002
   3.6001210441625818E-002
   3.6001169353709721E-002
   3.6000953792347551E-002
   3.6001034458502508E-002
   3.6002807015358282E-002
   3.6002944087758497E-002
   3.6001059713276919E-002
   3.6000698690411073E-002
   3.6000395251728302E-002
   3.6000240586373800E-002
   3.6000156652061847E-002
   3.6000123009226864E-002
   3.6001877962322508E-002
   3.6001736890168258E-002
   3.6001087883651868E-002
   3.6000869498883405E-002
   3.6000722569741413E-002
   3.6000424304408543E-002
   3.6000527584736992E-002
   3.6000535006712985E-002
   3.6000645553629002E-002
   3.6001656672628536E-002
   3.6001335810890774E-002
   3.6000313554491861E-002
   3.6000261679992769E-002
   3.6000138011832689E-002
   3.6000092627740822E-002
   3.6000084299641154E-002
   3.6002525098843489E-002
   3.6002630981108286E-002
   3.6002001246234691E-002
   3.6000603434074879E-002
   3.6000974210316540E-002
   3.6000556981461526E-002
   3.6000084442074753E-002
   3.6000078283907729E-002
   3.6000091340550364E-002
   3.6000127234060569E-002
   3.6000104676943562E-002
   3.6000053420634961E-002
   3.6000037108507389E-002
   3.6000024536123124E-002
   3.6000016459959983E-002
   3.6000011000439036E-002
   6.0000158008718399E-002
   6.0000456050015659E-002
   6.0001404518176898E-002
   6.0001930865576196E-002
   6.0001302886004339E-002
   6.0000619514900801E-002
   6.0002334123100118E-002
   6.0003418632708555E-002
   6.0001476651591321E-002
   6.0000790681951861E-002
   6.0000643032997632E-002
   6.0000357100505573E-002
   6.0000228056422716E-002
   6.0000148784936723E-002
   6.0000126529105455E-002
   6.0000665160279250E-002
   6.0000685551770599E-002
   6.0000669184518650E-002
   6.0000912818465320E-002
   6.0001202420784008E-002
   6.0001153888902016E-002
   6.0000953486722193E-002
   6.0001069376128105E-002
   6.0002701838137829E-002
   6.0002810483583982E-002
   6.0001071912683973E-002
   6.0000694782347277E-002
   6.0000398265392524E-002
   6.0000243856466996E-002
   6.0000159016866395E-002
   6.0000125061566642E-002
   6.0001843134618427E-002
   6.0001709329577796E-002
   6.0001103493861362E-002
   6.0000878898525740E-002
   6.0000741414724557E-002
   6.0000461204922688E-002
   6.0000543029956173E-002
   6.0000557835269024E-002
   6.0000692811813409E-002
   6.0001609312266002E-002
   6.0001288904088589E-002
   6.0000339346621370E-002
   6.0000267499891465E-002
   6.0000145631937722E-002
   6.0000097276869883E-002
   6.0000086731575475E-002
   6.0002452838872504E-002
   6.0002540589665282E-002
   6.0001936189855130E-002
   6.0000653787277813E-002
   6.0000959723882731E-002
   6.0000568501254008E-002
   6.0000134394610619E-002
   6.0000125663857949E-002
   6.0000146545452868E-002
   6.0000199739167773E-002
   6.0000164410735239E-002
   6.0000085997643636E-002
   6.0000059492091896E-002
   6.0000039521573886E-002
   6.0000026559411591E-002
   6.0000017890606591E-002
   9.0000228236240640E-002
   9.0000504832351266E-002
   9.0001364783393309E-002
   9.0001844957372276E-002
   9.0001283926720035E-002
   9.0000687649849268E-002
   9.0002228920733465E-002
   9.0003239214421160E-002
   9.0001517967684630E-002
   9.0000821363539305E-002
   9.0000645789249725E-002
   9.0000366919346930E-002
   9.0000234528481035E-002
   9.0000153126362212E-002
   9.0000130076589940E-002
   9.0000726091096814E-002
   9.0000732967172259E-002
   9.0000703960374934E-002
   9.0000929275507138E-002
   9.0001192588620271E-002
   9.0001136776466956E-002
   9.0000954456887383E-002
   9.0001105634097855E-002
   9.0002579455722140E-002
   9.0002657641865311E-002
   9.0001082923924905E-002
   9.0000690920273241E-002
   9.0000402094030110E-002
   9.0000248052975476E-002
   9.0000162111486204E-002
   9.0000127741446181E-002
   9.0001802377876208E-002
   9.0001676961892652E-002
   9.0001120305256740E-002
   9.0000890985374504E-002
   9.0000763267545233E-002
   9.0000503600616191E-002
   9.0000562582959839E-002
   9.0000585759780677E-002
   9.0000744648342748E-002
   9.0001554829933328E-002
   9.0001236690734454E-002
   9.0000368447477233E-002
   9.0000275222222051E-002
   9.0000154979552674E-002
   9.0000103135360374E-002
   9.0000090016270490E-002
   9.0002367539273931E-002
   9.0002435523202154E-002
   9.0001862610921954E-002
   9.0000709717453206E-002
   9.0000945302850049E-002
   9.0000583670179185E-002
   9.0000192687783628E-002
   9.0000181918857128E-002
   9.0000211833298191E-002
   9.0000281463865794E-002
   9.0000231865988295E-002
   9.0000124832592870E-002
   9.0000086031490484E-002
   9.0000057472161638E-002
   9.0000038713576216E-002
   9.0000026331075067E-002
  0.12000029401067133     
  0.12000055008096210     
  0.12000132962944304     
  0.12000176757255408     
  0.12000126623203562     
  0.12000074624667843     
  0.12000213379554778     
  0.12000307445838587     
  0.12000154746789089     
  0.12000084836451354     
  0.12000064867083061     
  0.12000037603539775     
  0.12000024079760266     
  0.12000015742701803     
  0.12000013363424082     
  0.12000078093894724     
  0.12000077647227327     
  0.12000073684383403     
  0.12000094412685544     
  0.12000118306319540     
  0.12000112183022674     
  0.12000095655899329     
  0.12000113491950597     
  0.12000246628912307     
  0.12000251878478531     
  0.12000109002668735     
  0.12000068797115873     
  0.12000040598193094     
  0.12000025234908196     
  0.12000016534299332     
  0.12000013053520980     
  0.12000176452023696     
  0.12000164673645955     
  0.12000113457001634     
  0.12000090322130856     
  0.12000078343356491     
  0.12000054232030537     
  0.12000058222491193     
  0.12000061281740691     
  0.12000078949235526     
  0.12000150506299544     
  0.12000119066789543     
  0.12000039451353989     
  0.12000028330517665     
  0.12000016413602882     
  0.12000010903007559     
  0.12000009353400105     
  0.12000228784372860     
  0.12000233845970346     
  0.12000179654245191     
  0.12000075910998076     
  0.12000093426462326     
  0.12000059944330779     
  0.12000024687095087     
  0.12000023504225234     
  0.12000027306435657     
  0.12000035437183508     
  0.12000029221559561     
  0.12000016158995434     
  0.12000011109395077     
  0.12000007460746312     
  0.12000005038097662     
  0.12000003459484292     
  0.18000041430090707     
  0.18000063154513196     
  0.18000127116197548     
  0.18000163467962382     
  0.18000123437549928     
  0.18000084081951431     
  0.18000196964471651     
  0.18000278200871023     
  0.18000157777682876     
  0.18000089258842755     
  0.18000065452169128     
  0.18000039253532713     
  0.18000025282210175     
  0.18000016593512971     
  0.18000014079939011     
  0.18000087591182964     
  0.18000085241632821     
  0.18000079708177902     
  0.18000096964948811     
  0.18000116513983552     
  0.18000109764411604     
  0.18000096325078294     
  0.18000117577331420     
  0.18000226519419846     
  0.18000227839169533     
  0.18000109455101510     
  0.18000068425380156     
  0.18000041390336149     
  0.18000026118196169     
  0.18000017217003789     
  0.18000013647962512     
  0.18000169620990916     
  0.18000159224056295     
  0.18000115662937249     
  0.18000092760386743     
  0.18000081924840225     
  0.18000060996465239     
  0.18000062130658862     
  0.18000066391577738     
  0.18000086094746473     
  0.18000141825171426     
  0.18000111473402447     
  0.18000043871244187     
  0.18000030020955735     
  0.18000018188856115     
  0.18000012088499423     
  0.18000010120029045     
  0.18000214232964787     
  0.18000216708688657     
  0.18000168485803275     
  0.18000083947723280     
  0.18000092133293222     
  0.18000063220261370     
  0.18000034367028706     
  0.18000033230016854     
  0.18000038362136200     
  0.18000047682216136     
  0.18000039409776974     
  0.18000022887830255     
  0.18000015709727288     
  0.18000010656312126     
  0.18000007237364765     
  0.18000005055722137     
  0.24000051950015427     
  0.24000070216047883     
  0.24000122566586821     
  0.24000152662067800     
  0.24000120667341349     
  0.24000091025680900     
  0.24000183322648774     
  0.24000253379896397     
  0.24000158075108466     
  0.24000092487325012     
  0.24000066017659299     
  0.24000040697036676     
  0.24000026415627307     
  0.24000017430996753     
  0.24000014800004185     
  0.24000095273900487     
  0.24000091665266601     
  0.24000085046619316     
  0.24000099095054045     
  0.24000114906554695     
  0.24000107932004011     
  0.24000097148135821     
  0.24000119978603315     
  0.24000209222408220     
  0.24000207755830508     
  0.24000109040018455     
  0.24000068233048744     
  0.24000042192089963     
  0.24000027020331205     
  0.24000017936936066     
  0.24000014277775830     
  0.24000163690680634     
  0.24000154458620265     
  0.24000117250745720     
  0.24000095091400561     
  0.24000085022239245     
  0.24000066724310912     
  0.24000065917020197     
  0.24000071035553905     
  0.24000091402679238     
  0.24000134516726468     
  0.24000105499063551     
  0.24000047481466771     
  0.24000031740389391     
  0.24000019891513805     
  0.24000013272914439     
  0.24000010945733033     
  0.24000201596122817     
  0.24000202050722902     
  0.24000159392712478     
  0.24000090301822358     
  0.24000091637344056     
  0.24000066528234487     
  0.24000042817049363     
  0.24000041879840031     
  0.24000047952183057     
  0.24000057438394587     
  0.24000047610466474     
  0.24000028846667681     
  0.24000019836169784     
  0.24000013580238025     
  0.24000009279101292     
  0.24000006589078871     
  0.39000073202738339     
  0.39000084180732247     
  0.39000115488133524     
  0.39000133893912092     
  0.39000115357123466     
  0.39000101165819223     
  0.39000158536511037     
  0.39000205960472967     
  0.39000151094957625     
  0.39000096500307568     
  0.39000067229200530     
  0.39000043657133726     
  0.39000029022808425     
  0.39000019487933540     
  0.39000016636801238     
  0.39000108880800699     
  0.39000103266409974     
  0.39000095656701372     
  0.39000103015090237     
  0.39000111758368916     
  0.39000105317095890     
  0.39000099375615799     
  0.39000120824850554     
  0.39000176270315029     
  0.39000171352556023     
  0.39000105553390202     
  0.39000068201728977     
  0.39000044196818401     
  0.39000029310834256     
  0.39000019857126961     
  0.39000016002946541     
  0.39000151929784826     
  0.39000145130428515     
  0.39000119307083997     
  0.39000100208240246     
  0.39000091053380898     
  0.39000077424722668     
  0.39000074567117593     
  0.39000080510296858     
  0.39000098625688207     
  0.39000121103352459     
  0.39000095884345476     
  0.39000053779943589     
  0.39000035954391177     
  0.39000023835832665     
  0.39000016194551995     
  0.39000013200479755     
  0.39000176403118730     
  0.39000174916558616     
  0.39000143989134750     
  0.39000100064239185     
  0.39000092999914171     
  0.39000074536506502     
  0.39000059255245151     
  0.39000059193868519     
  0.39000066074504680     
  0.39000073373747063     
  0.39000061327393293     
  0.39000040557547894     
  0.39000028317975577     
  0.39000019817853859     
  0.39000013783703563     
  0.39000010129525470     
  0.54000088330952434     
  0.54000094250793540     
  0.54000112010004675     
  0.54000122629797842     
  0.54000111660391581     
  0.54000105383972119     
  0.54000141628944920     
  0.54000173290768239     
  0.54000140645326367     
  0.54000096804702569     
  0.54000067950734332     
  0.54000045909502314     
  0.54000031313134822     
  0.54000021461338121     
  0.54000018458703281     
  0.54000116850458224     
  0.54000111020290187     
  0.54000103339267858     
  0.54000105843683177     
  0.54000109748627223     
  0.54000104167284579     
  0.54000101116384003     
  0.54000118752390502     
  0.54000152973315485     
  0.54000146679729788     
  0.54000101096324005     
  0.54000068258960210     
  0.54000046074577168     
  0.54000031533364912     
  0.54000021831155609     
  0.54000017814491352     
  0.54000143455255278     
  0.54000138407861886     
  0.54000120180506583     
  0.54000104192693621     
  0.54000095546421245     
  0.54000085000763565     
  0.54000081670050681     
  0.54000087282264364     
  0.54000101499332276     
  0.54000111856884780     
  0.54000090128697198     
  0.54000057884584562     
  0.54000039698919089     
  0.54000027344110124     
  0.54000018975498509     
  0.54000015526022449     
  0.54000158813079913     
  0.54000156378875996     
  0.54000134391002996     
  0.54000105897950301     
  0.54000095545976967     
  0.54000081544017886     
  0.54000071372633884     
  0.54000071856213838     
  0.54000078110819316     
  0.54000082267845939     
  0.54000069416765362     
  0.54000048926304856     
  0.54000034894224869     
  0.54000024915672518     
  0.54000017640124509     
  0.54000013347187059     
  0.84000106731657898     
  0.84000106707291078     
  0.84000110675615103     
  0.84000112822020134     
  0.84000107779929456     
  0.84000106508864036     
  0.84000121849944565     
  0.84000134950527439     
  0.84000119777919435     
  0.84000092100183410     
  0.84000068183201682     
  0.84000049118267306     
  0.84000035217556956     
  0.84000025188097260     
  0.84000022076812231     
  0.84000123754383960     
  0.84000118962557802     
  0.84000112409188510     
  0.84000109612204255     
  0.84000108347199876     
  0.84000104044740576     
  0.84000102831933088     
  0.84000112170003383     
  0.84000125446220442     
  0.84000118686795733     
  0.84000092574062801     
  0.84000068094266389     
  0.84000049241947317     
  0.84000035569209142     
  0.84000025699981029     
  0.84000021516853263     
  0.84000133036600999     
  0.84000130479613921     
  0.84000120578632931     
  0.84000109281482949     
  0.84000101503875835     
  0.84000094247677837     
  0.84000091288693768     
  0.84000094479217269     
  0.84000101010077477     
  0.84000100913420228     
  0.84000084383746709     
  0.84000062213105930     
  0.84000045485999708     
  0.84000033103159943     