# vtk DataFile Version 2.0
3D Unstructured Grid of Linear Triangles
ASCII
DATASET UNSTRUCTURED_GRID
FIELD FieldData  1
TIME 1 1 double
       10805.01532
POINTS     1008 float
      5.00000000E-01  1.00000000E+01  1.00000000E+00
      1.00000000E+00  1.00000000E+01  1.00000004E+00
      1.50000000E+00  1.00000000E+01  1.00000011E+00
      2.00000000E+00  1.00000000E+01  1.00000017E+00
      2.50000000E+00  1.00000000E+01  1.00000024E+00
      3.00000000E+00  1.00000000E+01  1.00000030E+00
      3.50000000E+00  1.00000000E+01  1.00000037E+00
      4.00000000E+00  1.00000000E+01  1.00000043E+00
      4.50000000E+00  1.00000000E+01  1.00000050E+00
      5.00000000E+00  1.00000000E+01  1.00000056E+00
      5.50000000E+00  1.00000000E+01  1.00000063E+00
      6.00000000E+00  1.00000000E+01  1.00000069E+00
      6.50000000E+00  1.00000000E+01  1.00000076E+00
      7.00000000E+00  1.00000000E+01  1.00000082E+00
      7.50000000E+00  1.00000000E+01  1.00000084E+00
      0.00000000E+00  9.50000000E+00  1.00000000E+00
      5.00000000E-01  9.50000000E+00  1.00000000E+00
      1.00000000E+00  9.50000000E+00  1.00000003E+00
      1.50000000E+00  9.50000000E+00  1.00000010E+00
      2.00000000E+00  9.50000000E+00  1.00000016E+00
      2.50000000E+00  9.50000000E+00  1.00000023E+00
      3.00000000E+00  9.50000000E+00  1.00000029E+00
      3.50000000E+00  9.50000000E+00  1.00000036E+00
      4.00000000E+00  9.50000000E+00  1.00000042E+00
      4.50000000E+00  9.50000000E+00  1.00000049E+00
      5.00000000E+00  9.50000000E+00  1.00000055E+00
      5.50000000E+00  9.50000000E+00  1.00000062E+00
      6.00000000E+00  9.50000000E+00  1.00000068E+00
      6.50000000E+00  9.50000000E+00  1.00000075E+00
      7.00000000E+00  9.50000000E+00  1.00000081E+00
      7.50000000E+00  9.50000000E+00  1.00000084E+00
      0.00000000E+00  9.00000000E+00  1.00000004E+00
      5.00000000E-01  9.00000000E+00  1.00000003E+00
      1.00000000E+00  9.00000000E+00  1.00000004E+00
      1.50000000E+00  9.00000000E+00  1.00000010E+00
      2.00000000E+00  9.00000000E+00  1.00000016E+00
      2.50000000E+00  9.00000000E+00  1.00000023E+00
      3.00000000E+00  9.00000000E+00  1.00000029E+00
      3.50000000E+00  9.00000000E+00  1.00000036E+00
      4.00000000E+00  9.00000000E+00  1.00000042E+00
      4.50000000E+00  9.00000000E+00  1.00000049E+00
      5.00000000E+00  9.00000000E+00  1.00000055E+00
      5.50000000E+00  9.00000000E+00  1.00000062E+00
      6.00000000E+00  9.00000000E+00  1.00000068E+00
      6.50000000E+00  9.00000000E+00  1.00000075E+00
      7.00000000E+00  9.00000000E+00  1.00000081E+00
      7.50000000E+00  9.00000000E+00  1.00000084E+00
      0.00000000E+00  8.50000000E+00  1.00000007E+00
      5.00000000E-01  8.50000000E+00  1.00000007E+00
      1.00000000E+00  8.50000000E+00  1.00000007E+00
      1.50000000E+00  8.50000000E+00  1.00000009E+00
      2.00000000E+00  8.50000000E+00  1.00000015E+00
      2.50000000E+00  8.50000000E+00  1.00000022E+00
      3.00000000E+00  8.50000000E+00  1.00000028E+00
      3.50000000E+00  8.50000000E+00  1.00000035E+00
      4.00000000E+00  8.50000000E+00  1.00000041E+00
      4.50000000E+00  8.50000000E+00  1.00000048E+00
      5.00000000E+00  8.50000000E+00  1.00000054E+00
      5.50000000E+00  8.50000000E+00  1.00000061E+00
      6.00000000E+00  8.50000000E+00  1.00000067E+00
      6.50000000E+00  8.50000000E+00  1.00000074E+00
      7.00000000E+00  8.50000000E+00  1.00000080E+00
      7.50000000E+00  8.50000000E+00  1.00000084E+00
      5.00000000E-01  1.00000000E+01  9.94000000E-01
      1.00000000E+00  1.00000000E+01  9.94000043E-01
      1.50000000E+00  1.00000000E+01  9.94000108E-01
      2.00000000E+00  1.00000000E+01  9.94000173E-01
      2.50000000E+00  1.00000000E+01  9.94000238E-01
      3.00000000E+00  1.00000000E+01  9.94000303E-01
      3.50000000E+00  1.00000000E+01  9.94000368E-01
      4.00000000E+00  1.00000000E+01  9.94000433E-01
      4.50000000E+00  1.00000000E+01  9.94000498E-01
      5.00000000E+00  1.00000000E+01  9.94000563E-01
      5.50000000E+00  1.00000000E+01  9.94000628E-01
      6.00000000E+00  1.00000000E+01  9.94000693E-01
      6.50000000E+00  1.00000000E+01  9.94000758E-01
      7.00000000E+00  1.00000000E+01  9.94000823E-01
      7.50000000E+00  1.00000000E+01  9.94000845E-01
      0.00000000E+00  9.50000000E+00  9.94000000E-01
      5.00000000E-01  9.50000000E+00  9.94000000E-01
      1.00000000E+00  9.50000000E+00  9.94000033E-01
      1.50000000E+00  9.50000000E+00  9.94000098E-01
      2.00000000E+00  9.50000000E+00  9.94000163E-01
      2.50000000E+00  9.50000000E+00  9.94000227E-01
      3.00000000E+00  9.50000000E+00  9.94000292E-01
      3.50000000E+00  9.50000000E+00  9.94000358E-01
      4.00000000E+00  9.50000000E+00  9.94000423E-01
      4.50000000E+00  9.50000000E+00  9.94000488E-01
      5.00000000E+00  9.50000000E+00  9.94000553E-01
      5.50000000E+00  9.50000000E+00  9.94000618E-01
      6.00000000E+00  9.50000000E+00  9.94000683E-01
      6.50000000E+00  9.50000000E+00  9.94000747E-01
      7.00000000E+00  9.50000000E+00  9.94000812E-01
      7.50000000E+00  9.50000000E+00  9.94000845E-01
      0.00000000E+00  9.00000000E+00  9.94000043E-01
      5.00000000E-01  9.00000000E+00  9.94000033E-01
      1.00000000E+00  9.00000000E+00  9.94000043E-01
      1.50000000E+00  9.00000000E+00  9.94000098E-01
      2.00000000E+00  9.00000000E+00  9.94000163E-01
      2.50000000E+00  9.00000000E+00  9.94000227E-01
      3.00000000E+00  9.00000000E+00  9.94000292E-01
      3.50000000E+00  9.00000000E+00  9.94000358E-01
      4.00000000E+00  9.00000000E+00  9.94000423E-01
      4.50000000E+00  9.00000000E+00  9.94000488E-01
      5.00000000E+00  9.00000000E+00  9.94000553E-01
      5.50000000E+00  9.00000000E+00  9.94000618E-01
      6.00000000E+00  9.00000000E+00  9.94000683E-01
      6.50000000E+00  9.00000000E+00  9.94000747E-01
      7.00000000E+00  9.00000000E+00  9.94000812E-01
      7.50000000E+00  9.00000000E+00  9.94000845E-01
      0.00000000E+00  8.50000000E+00  9.94000065E-01
      5.00000000E-01  8.50000000E+00  9.94000065E-01
      1.00000000E+00  8.50000000E+00  9.94000065E-01
      1.50000000E+00  8.50000000E+00  9.94000087E-01
      2.00000000E+00  8.50000000E+00  9.94000152E-01
      2.50000000E+00  8.50000000E+00  9.94000217E-01
      3.00000000E+00  8.50000000E+00  9.94000282E-01
      3.50000000E+00  8.50000000E+00  9.94000347E-01
      4.00000000E+00  8.50000000E+00  9.94000412E-01
      4.50000000E+00  8.50000000E+00  9.94000477E-01
      5.00000000E+00  8.50000000E+00  9.94000542E-01
      5.50000000E+00  8.50000000E+00  9.94000607E-01
      6.00000000E+00  8.50000000E+00  9.94000672E-01
      6.50000000E+00  8.50000000E+00  9.94000737E-01
      7.00000000E+00  8.50000000E+00  9.94000802E-01
      7.50000000E+00  8.50000000E+00  9.94000845E-01
      5.00000000E-01  1.00000000E+01  9.82000000E-01
      1.00000000E+00  1.00000000E+01  9.82000043E-01
      1.50000000E+00  1.00000000E+01  9.82000108E-01
      2.00000000E+00  1.00000000E+01  9.82000173E-01
      2.50000000E+00  1.00000000E+01  9.82000238E-01
      3.00000000E+00  1.00000000E+01  9.82000303E-01
      3.50000000E+00  1.00000000E+01  9.82000368E-01
      4.00000000E+00  1.00000000E+01  9.82000433E-01
      4.50000000E+00  1.00000000E+01  9.82000498E-01
      5.00000000E+00  1.00000000E+01  9.82000563E-01
      5.50000000E+00  1.00000000E+01  9.82000628E-01
      6.00000000E+00  1.00000000E+01  9.82000693E-01
      6.50000000E+00  1.00000000E+01  9.82000758E-01
      7.00000000E+00  1.00000000E+01  9.82000823E-01
      7.50000000E+00  1.00000000E+01  9.82000845E-01
      0.00000000E+00  9.50000000E+00  9.82000000E-01
      5.00000000E-01  9.50000000E+00  9.82000000E-01
      1.00000000E+00  9.50000000E+00  9.82000033E-01
      1.50000000E+00  9.50000000E+00  9.82000098E-01
      2.00000000E+00  9.50000000E+00  9.82000163E-01
      2.50000000E+00  9.50000000E+00  9.82000227E-01
      3.00000000E+00  9.50000000E+00  9.82000292E-01
      3.50000000E+00  9.50000000E+00  9.82000358E-01
      4.00000000E+00  9.50000000E+00  9.82000423E-01
      4.50000000E+00  9.50000000E+00  9.82000488E-01
      5.00000000E+00  9.50000000E+00  9.82000553E-01
      5.50000000E+00  9.50000000E+00  9.82000618E-01
      6.00000000E+00  9.50000000E+00  9.82000683E-01
      6.50000000E+00  9.50000000E+00  9.82000747E-01
      7.00000000E+00  9.50000000E+00  9.82000812E-01
      7.50000000E+00  9.50000000E+00  9.82000845E-01
      0.00000000E+00  9.00000000E+00  9.82000043E-01
      5.00000000E-01  9.00000000E+00  9.82000033E-01
      1.00000000E+00  9.00000000E+00  9.82000043E-01
      1.50000000E+00  9.00000000E+00  9.82000098E-01
      2.00000000E+00  9.00000000E+00  9.82000163E-01
      2.50000000E+00  9.00000000E+00  9.82000227E-01
      3.00000000E+00  9.00000000E+00  9.82000292E-01
      3.50000000E+00  9.00000000E+00  9.82000358E-01
      4.00000000E+00  9.00000000E+00  9.82000423E-01
      4.50000000E+00  9.00000000E+00  9.82000488E-01
      5.00000000E+00  9.00000000E+00  9.82000553E-01
      5.50000000E+00  9.00000000E+00  9.82000618E-01
      6.00000000E+00  9.00000000E+00  9.82000683E-01
      6.50000000E+00  9.00000000E+00  9.82000747E-01
      7.00000000E+00  9.00000000E+00  9.82000812E-01
      7.50000000E+00  9.00000000E+00  9.82000845E-01
      0.00000000E+00  8.50000000E+00  9.82000065E-01
      5.00000000E-01  8.50000000E+00  9.82000065E-01
      1.00000000E+00  8.50000000E+00  9.82000065E-01
      1.50000000E+00  8.50000000E+00  9.82000087E-01
      2.00000000E+00  8.50000000E+00  9.82000152E-01
      2.50000000E+00  8.50000000E+00  9.82000217E-01
      3.00000000E+00  8.50000000E+00  9.82000282E-01
      3.50000000E+00  8.50000000E+00  9.82000347E-01
      4.00000000E+00  8.50000000E+00  9.82000412E-01
      4.50000000E+00  8.50000000E+00  9.82000477E-01
      5.00000000E+00  8.50000000E+00  9.82000542E-01
      5.50000000E+00  8.50000000E+00  9.82000607E-01
[...]
POINT_DATA     1008
SCALARS pressure float
LOOKUP_TABLE default
   5.3928858431420349E-009
   6.3043961174186347E-007
   1.0505366306283928E-006
   1.1434273008605157E-006
   9.9162631238225063E-007
   5.1079604243250252E-007
   1.0136670199999584E-006
   1.1830734399571494E-006
   3.6874626388735078E-007
   7.2099153101035015E-007
   5.4764951875804918E-007
   3.5919186943476140E-007
   2.8891642324822376E-007
   1.9825197047203208E-007
   1.8017813666252530E-007
   8.2638091993125922E-007
   8.3117721867901785E-007
   8.3265668720105756E-007
   9.5677918736465137E-007
   9.1427872910201834E-007
   9.3704226469613338E-007
   1.0859650723298634E-006
   6.6862976839140422E-007
   1.1556334260819199E-006
   1.3656960319053101E-006
   6.1200650109420954E-007
   7.0730573737290048E-007
   4.0722951359521694E-007
   3.3377034236517562E-007
   2.2244554759559694E-007
   1.8085378147156154E-007
   1.0190684460104094E-006
   1.2047462513607058E-006
   1.0315367562594535E-006
   1.0738610677795624E-006
   8.8775960917132471E-007
   5.4212680833127365E-007
   5.7693300100181212E-007
   6.1418642631526733E-007
   2.9122264393157408E-007
   8.7614703097454105E-007
   7.7971573392248625E-007
   1.9206163837581396E-007
   3.2952687259378693E-007
   1.6409620127547788E-007
   1.3780005923662848E-007
   1.2159842675967583E-007
   1.1154226224522714E-006
   1.2791969316007896E-006
   1.1860606480630751E-006
   6.6929639705685565E-007
   1.1994173128190078E-006
   6.4783880168387016E-007
   4.2172861197838748E-009
   3.3516826723436569E-009
   2.7563954983583926E-009
   3.6686505479449983E-009
   3.2253711715341566E-009
   1.8675386157448493E-009
   1.7016942794186120E-009
   1.1647231799506518E-009
   8.3102167979449393E-010
   5.2755545260439272E-010
   6.0000224971398395E-003
   6.0006342907040332E-003
   6.0010476223773014E-003
   6.0011389676645809E-003
   6.0009890330627825E-003
   6.0005201798119610E-003
   6.0010088023430917E-003
   6.0011763282091140E-003
   6.0003820703359084E-003
   6.0007180357034805E-003
   6.0005479416129102E-003
   6.0003601346661174E-003
   6.0002890047479033E-003
   6.0001984647964019E-003
   6.0001800742889369E-003
   6.0008293994964603E-003
   6.0008331921549965E-003
   6.0008346858752455E-003
   6.0009567333549341E-003
   6.0009151118244081E-003
   6.0009354120803080E-003
   6.0010777195951964E-003
   6.0006730220940087E-003
   6.0011483325781677E-003
   6.0013517287321010E-003
   6.0006152537320024E-003
   6.0007018178596461E-003
   6.0004071490657226E-003
   6.0003324093943211E-003
   6.0002219898539705E-003
   6.0001804939337306E-003
   6.0010200227179292E-003
   6.0012009373410554E-003
   6.0010318125819561E-003
   6.0010703918102733E-003
   6.0008881189154662E-003
   6.0005474955127308E-003
   6.0005781537400714E-003
   6.0006119455652176E-003
   6.0002995306828056E-003
   6.0008702367640773E-003
   6.0007730231803249E-003
   6.0001976839674370E-003
   6.0003278082846586E-003
   6.0001653184040609E-003
   6.0001378688232417E-003
   6.0001214268296642E-003
   6.0011153687691866E-003
   6.0012751902765995E-003
   6.0011822773183184E-003
   6.0006785074083330E-003
   6.0011905928639819E-003
   6.0006485228090269E-003
   6.0000175324011881E-003
   6.0000139604002769E-003
   6.0000115121734464E-003
   6.0000152534060418E-003
   6.0000134086900369E-003
   6.0000078000145970E-003
   6.0000070849335618E-003
   6.0000048576590286E-003
   6.0000034645779606E-003
   6.0000022004399311E-003
   1.8000055860363861E-002
   1.8000642158946607E-002
   1.8001041289794673E-002
   1.8001128902829754E-002
   1.8000983045898183E-002
   1.8000537746165095E-002
   1.8000997471002020E-002
   1.8001160202594756E-002
   1.8000406418536286E-002
   1.8000711712286767E-002
   1.8000547464127811E-002
   1.8000361528516445E-002
   1.8000288893284880E-002
   1.8000198648210786E-002
   1.8000179695534288E-002
   1.8000835518681937E-002
   1.8000837221060162E-002
   1.8000838643431237E-002
   1.8000956334592394E-002
   1.8000916122104440E-002
   1.8000931500526129E-002
   1.8001061228902486E-002
   1.8000680648260641E-002
   1.8001131521416039E-002
   1.8001321759764238E-002
   1.8000620106114119E-002
   1.8000690512335667E-002
   1.8000406415768954E-002
   1.8000329565585560E-002
   1.8000220883265167E-002
   1.8000179613824586E-002
   1.8001020917383512E-002
   1.8001192704179211E-002
   1.8001031931508850E-002
   1.8001063457513913E-002
   1.8000888472684464E-002
   1.8000557893052282E-002
   1.8000580246828442E-002
   1.8000607565041935E-002
   1.8000314975322455E-002
   1.8000856944469713E-002
   1.8000758676972567E-002
   1.8000208147047218E-002
   1.8000324402317656E-002
   1.8000167550503498E-002
   1.8000137962510283E-002
   1.8000120995869770E-002
   1.8001113687671506E-002
   1.8001265697628065E-002
   1.8001173696645310E-002
   1.8000696028811710E-002
   1.8001173196783935E-002
   1.8000649692974498E-002
   1.8000043364809284E-002
   1.8000034648398500E-002
   1.8000028758422201E-002
   1.8000037670491076E-002
   1.8000033105416046E-002
   1.8000019486585472E-002
   1.8000017563500299E-002
   1.8000012093622248E-002
   1.8000008615274832E-002
   1.8000005489977374E-002
   3.6000103771779007E-002
   3.6000653727126956E-002
   3.6001032311854843E-002
   3.6001114523938456E-002
   3.6000974501660607E-002
   3.6000562076069047E-002
   3.6000981481159544E-002
   3.6001137023228165E-002
   3.6000439919690500E-002
   3.6000702921539500E-002
   3.6000546484284031E-002
   3.6000363431482219E-002
   3.6000288679370947E-002
   3.6000198870552544E-002
   3.6000179136051524E-002
   3.6000844349059417E-002
   3.6000843172939084E-002
   3.6000844399149433E-002
   3.6000955687845268E-002
   3.6000917365895009E-002
   3.6000925845806352E-002
   3.6001038117148158E-002
   3.6000690914584112E-002
   3.6001107425388167E-002
   3.6001279248540366E-002
   3.6000626290637383E-002
   3.6000674600619099E-002
   3.6000405217412761E-002
   3.6000325541527350E-002
   3.6000219287470700E-002
   3.6000178342146562E-002
   3.6001022026925351E-002
   3.6001180995281219E-002
   3.6001031899346926E-002
   3.6001053791603642E-002
   3.6000888845717213E-002
   3.6000572617264137E-002
   3.6000583453184201E-002
   3.6000601891315272E-002
   3.6000336679942728E-002
   3.6000838092043547E-002
   3.6000738591098834E-002
   3.6000222815950930E-002
   3.6000319842841182E-002
   3.6000170765837163E-002
   3.6000138186371669E-002
   3.6000120448713355E-002
   3.6001110986720646E-002
   3.6001251967623979E-002
   3.6001161597972155E-002
   3.6000720344004825E-002
   3.6001148847053327E-002
   3.6000651718430199E-002
   3.6000080241912119E-002
   3.6000064416258803E-002
   3.6000053969176278E-002
   3.6000069518709675E-002
   3.6000061070338381E-002
   3.6000036571972781E-002
   3.6000032599439756E-002
   3.6000022585987626E-002
   3.6000016063278767E-002
   3.6000010293858034E-002
   6.0000163815515456E-002
   6.0000668713700189E-002
   6.0001021262912159E-002
   6.0001096617390545E-002
   6.0000963872279621E-002
   6.0000591043084826E-002
   6.0000961883247925E-002
   6.0001107917360526E-002
   6.0000479403922231E-002
   6.0000692358480233E-002
   6.0000544756018230E-002
   6.0000365636085636E-002
   6.0000288318169483E-002
   6.0000199077080318E-002
   6.0000178405814487E-002
   6.0000855489760550E-002
   6.0000850949972921E-002
   6.0000851748747953E-002
   6.0000954753029821E-002
   6.0000918568097056E-002
   6.0000918689115730E-002
   6.0001010082226795E-002
   6.0000702635214974E-002
   6.0001077262923509E-002
   6.0001226789169415E-002
   6.0000632720202389E-002
   6.0000655172711463E-002
   6.0000403471723036E-002
   6.0000320594214548E-002
   6.0000217276464617E-002
   6.0000176733116688E-002
   6.0001023120972455E-002
   6.0001166498762949E-002
   6.0001031519097386E-002
   6.0001042150391058E-002
   6.0000889088273307E-002
   6.0000590740417255E-002
   6.0000587832672717E-002
   6.0000595824092937E-002
   6.0000363111854832E-002
   6.0000814848799752E-002
   6.0000714263223683E-002
   6.0000240625580695E-002
   6.0000314688502553E-002
   6.0000174826633459E-002
   6.0000138624839917E-002
   6.0000119889017829E-002
   6.0001107129423296E-002
   6.0001234566760084E-002
   6.0001146772032894E-002
   6.0000749447658215E-002
   6.0001119340325572E-002
   6.0000654851385893E-002
   6.0000126165182799E-002
   6.0000101884681557E-002
   6.0000086344941431E-002
   6.0000108891018346E-002
   6.0000095615482398E-002
   6.0000058514525098E-002
   6.0000051458256334E-002
   6.0000035927236108E-002
   6.0000025502089230E-002
   6.0000016469059350E-002
   9.0000233088666795E-002
   9.0000686738765504E-002
   9.0001008817778436E-002
   9.0001076107438543E-002
   9.0000951697512183E-002
   9.0000622286459095E-002
   9.0000939837270671E-002
   9.0001074220578764E-002
   9.0000521360969893E-002
   9.0000680736329441E-002
   9.0000542048722376E-002
   9.0000367899284908E-002
   9.0000287764710155E-002
   9.0000199208582071E-002
   9.0000177519612701E-002
   9.0000868449564939E-002
   9.0000860415182973E-002
   9.0000860439683153E-002
   9.0000953501736425E-002
   9.0000919436747914E-002
   9.0000910328606409E-002
   9.0000979021487723E-002
   9.0000714547085151E-002
   9.0001042468627820E-002
   9.0001167345356847E-002
   9.0000638267021926E-002
   9.0000633441832914E-002
   9.0000401117741810E-002
   9.0000315018036514E-002
   9.0000214943412649E-002
   9.0000174855123030E-002
   9.0001023958149795E-002
   9.0001150011625466E-002
   9.0001030605540641E-002
   9.0001029360770229E-002
   9.0000889055760203E-002
   9.0000611201961997E-002
   9.0000593434568302E-002
   9.0000590309359946E-002
   9.0000392552121472E-002
   9.0000788571970303E-002
   9.0000687365848181E-002
   9.0000260395132620E-002
   9.0000309538992518E-002
   9.0000179579603559E-002
   9.0000139368512005E-002
   9.0000119435058229E-002
   9.0001102012349329E-002
   9.0001214190540080E-002
   9.0001130094070694E-002
   9.0000781136870669E-002
   9.0001086682282946E-002
   9.0000659328514601E-002
   9.0000178812636777E-002
   9.0000145419868033E-002
   9.0000124823078523E-002
   9.0000153581955289E-002
   9.0000134797933659E-002
   9.0000084591463428E-002
   9.0000073284254009E-002
   9.0000051616480531E-002
   9.0000036565415414E-002
   9.0000023839697837E-002
  0.12000029629056176     
  0.12000070398684551     
  0.12000099776612509     
  0.12000105749359563     
  0.12000094063667834     
  0.12000064871028655     
  0.12000092015079873     
  0.12000104330448602     
  0.12000055618091608     
  0.12000067057098511     
  0.12000053888905876     
  0.12000036966271231     
  0.12000028712340528     
  0.12000019922010863     
  0.12000017666194601     
  0.12000088037901242     
  0.12000086963753556     
  0.12000086861339032     
  0.12000095219687409     
  0.12000091972189814     
  0.12000090257690776     
  0.12000095179349854     
  0.12000072392352025     
  0.12000101059166196     
  0.12000111390581515     
  0.12000064155792559     
  0.12000061416285732     
  0.12000039864763680     
  0.12000031003889335     
  0.12000021280102133     
  0.12000017311237775     
  0.12000102432257352     
  0.12000113514164956     
  0.12000102932604290     
  0.12000101823845589     
  0.12000088873658747     
  0.12000062951611340     
  0.12000059912724299     
  0.12000058668864516     
  0.12000041851790720     
  0.12000076504654714     
  0.12000066384618989     
  0.12000027777960563     
  0.12000030559403269     
  0.12000018402164996     
  0.12000014029322603     
  0.12000011921620858     
  0.12000109676072587     
  0.12000119521699358     
  0.12000111516391240     
  0.12000080844866380     
  0.12000105800756840     
  0.12000066426553196     
  0.12000022678723554     
  0.12000018562776570     
  0.12000016111786407     
  0.12000019379415375     
  0.12000017003703760     
  0.12000010918460598     
  0.12000009336856064     
  0.12000006628259856     
  0.12000004688021650     
  0.12000003085945214     
  0.18000040794331032     
  0.18000073604670730     
  0.18000097912805091     
  0.18000102517103608     
  0.18000092125169367     
  0.18000068983703424     
  0.18000088667392689     
  0.18000098827159497     
  0.18000060823330835     
  0.18000065346340458     
  0.18000053153834197     
  0.18000037196538426     
  0.18000028563140555     
  0.18000019897252489     
  0.18000017504893376     
  0.18000090169578686     
  0.18000088679540255     
  0.18000088350433155     
  0.18000094951816398     
  0.18000091885636396     
  0.18000088877784937     
  0.18000090729513257     
  0.18000073636530942     
  0.18000095474204653     
  0.18000102291807193     
  0.18000064266314478     
  0.18000058196564253     
  0.18000039353776359     
  0.18000030166525322     
  0.18000020905866329     
  0.18000017007581276     
  0.18000102378617105     
  0.18000110972596936     
  0.18000102596759868     
  0.18000100025169005     
  0.18000088745344847     
  0.18000066046564295     
  0.18000061064821429     
  0.18000058409538941     
  0.18000046139322889     
  0.18000072535001027     
  0.18000062557428609     
  0.18000030638346567     
  0.18000030072157458     
  0.18000019209254478     
  0.18000014259175409     
  0.18000011943880490     
  0.18000108542326995     
  0.18000116141162206     
  0.18000109008563855     
  0.18000085111148503     
  0.18000101180002423     
  0.18000067518095914     
  0.18000030970398775     
  0.18000025694686883     
  0.18000022722745682     
  0.18000026232274802     
  0.18000023006008559     
  0.18000015395475580     
  0.18000012885421657     
  0.18000009274528772     
  0.18000006547748945     
  0.18000004379995896     
  0.24000050122981556     
  0.24000076508409376     
  0.24000096449208397     
  0.24000099838179181     
  0.24000090494987239     
  0.24000071884613361     
  0.24000085920932290     
  0.24000094145188738     
  0.24000064253081518     
  0.24000063938582927     
  0.24000052358940924     
  0.24000037290404064     
  0.24000028399420040     
  0.24000019846709528     
  0.24000017355325964     
  0.24000091976126323     
  0.24000090281573833     
  0.24000089668919813     
  0.24000094691863599     
  0.24000091674770072     
  0.24000087694307082     
  0.24000087277193050     
  0.24000074307331171     
  0.24000090752069791     
  0.24000094848813311     
  0.24000063910125982     
  0.24000055614625954     
  0.24000038852871036     
  0.24000029495487163     
  0.24000020595843771     
  0.24000016751005881     
  0.24000102226922446     
  0.24000108890785449     
  0.24000102212151009     
  0.24000098639707532     
  0.24000088572784445     
  0.24000068552030704     
  0.24000062205208858     
  0.24000058556096537     
  0.24000049512442040     
  0.24000069342980559     
  0.24000059606729482     
  0.24000032885517344     
  0.24000029862622116     
  0.24000019932076230     
  0.24000014528821043     
  0.24000012029062362     
  0.24000107440183582     
  0.24000113215211880     
  0.24000106958009559     
  0.24000088278794487     
  0.24000097602288908     
  0.24000068662376728     
  0.24000037913837502     
  0.24000031820030235     
  0.24000028534771642     
  0.24000031817409836     
  0.24000027901160131     
  0.24000019328856023     
  0.24000015923666443     
  0.24000011590748613     
  0.24000008177337340     
  0.24000005557458806     
  0.39000067703542579     
  0.39000082477043435     
  0.39000094041938549     
  0.39000094993491929     
  0.39000087409338291     
  0.39000075571001364     
  0.39000080968442558     
  0.39000085062576867     
  0.39000067511709735     
  0.39000061167597022     
  0.39000050286385496     
  0.39000037131128285     
  0.39000027970260337     
  0.39000019669145719     
  0.39000017059345499     
  0.39000095448438082     
  0.39000093529525637     
  0.39000092307731216     
  0.39000094120825785     
  0.39000090821172367     
  0.39000085472392604     
  0.39000081918226592     
  0.39000074323630851     
  0.39000082040731926     
  0.39000081914703827     
  0.39000061794207097     
  0.39000051261945734     
  0.39000037730699483     
  0.39000028392349673     
  0.39000020068248775     
  0.39000016331085635     
  0.39000101533563236     
  0.39000105290274489     
  0.39000101204922699     
  0.39000096486656238     
  0.39000088072439870     
  0.39000072809578351     
  0.39000064905285925     
  0.39000060022635896     
  0.39000054917908300     
  0.39000064051126759     
  0.39000055094614416     
  0.39000036500819368     
  0.39000030153976384     
  0.39000021445158728     
  0.39000015310944280     
  0.39000012462527089     
  0.39000104632961702     
  0.39000107721028238     
  0.39000103440982276     
  0.39000092427733274     
  0.39000092414182491     
  0.39000071530691055     
  0.39000050300080558     
  0.39000043425933478     
  0.39000039812260262     
  0.39000041433849425     
  0.39000036342879335     
  0.39000026945622385     
  0.39000021693261444     
  0.39000016127586956     
  0.39000011413378094     
  0.39000007987222940     
  0.54000079218172059     
  0.54000086964926863     
  0.54000092770668395     
  0.54000091863030697     
  0.54000085250214014     
  0.54000076758660676     
  0.54000077524309753     
  0.54000078666935203     
  0.54000067364175663     
  0.54000058887150837     
  0.54000048437889658     
  0.54000036699425624     
  0.54000027582745924     
  0.54000019492523499     
  0.54000016840332310     
  0.54000097773308586     
  0.54000096090943783     
  0.54000094269915422     
  0.54000093706608099     
  0.54000089926370176     
  0.54000083956787137     
  0.54000078927810957     
  0.54000073553427519     
  0.54000076106857242     
  0.54000073586577135     
  0.54000059377201515     
  0.54000048497968567     
  0.54000036869531787     
  0.54000027763662750     
  0.54000019786901632     
  0.54000016106101423     
  0.54000100822707398     
  0.54000103040244485     
  0.54000100366655046     
  0.54000095244466717     
  0.54000087647828432     
  0.54000075477797171     
  0.54000067214216485     
  0.54000061813271638     
  0.54000058057907241     
  0.54000060912673309     
  0.54000052632039397     
  0.54000038642861625     
  0.54000030834961676     
  0.54000022677361970     
  0.54000016109961235     
  0.54000013022887561     
  0.54000102413794426     
  0.54000103912504938     
  0.54000101127431133     
  0.54000094271092292     
  0.54000089690882436     
  0.54000074005046395     
  0.54000058570299381     
  0.54000051555985473     
  0.54000047704553034     
  0.54000047388299299     
  0.54000041601847326     
  0.54000032274415344     
  0.54000025773123073     
  0.54000019435637903     
  0.54000013831936267     
  0.54000009935288529     
  0.84000091824396073     
  0.84000092526838332     
  0.84000091918923037     
  0.84000088602138701     
  0.84000082666303855     
  0.84000076325899387     
  0.84000073274825660     
  0.84000070829967299     
  0.84000063615818810     
  0.84000055119958739     
  0.84000045602847129     
  0.84000035699927844     
  0.84000027048670223     
  0.84000019300188344     
  0.84000016713539638     
  0.84000100370911679     
  0.84000099238595838     
  0.84000096718420025     
  0.84000093291718136     
  0.84000088527686456     
  0.84000082319201619     
  0.84000076496070331     
  0.84000071677702237     
  0.84000069498479113     
  0.84000064895857318     
  0.84000055305038723     
  0.84000045556894110     
  0.84000035848860466     
  0.84000027331069305     
  0.84000019721551322     
  0.84000016128189481     
  0.84000099658510341     
  0.84000100916578924     
  0.84000099329443267     
  0.84000094106214462     
  0.84000087159080195     
  0.84000078160299763     
  0.84000070522842418     
  0.84000064842347555     
  0.84000060767843399     
  0.84000058164435620     
  0.84000050697638817     
  0.84000040609087068     
  0.84000032321202378     
  0.84000024506871018     