# vtk DataFile Version 2.0
3D Unstructured Grid of Linear Triangles
ASCII
DATASET UNSTRUCTURED_GRID
FIELD FieldData  1
TIME 1 1 double
       18005.01532
POINTS     1008 float
      5.00000000E-01  1.00000000E+01  1.00000000E+00
      1.00000000E+00  1.00000000E+01  1.00000004E+00
      1.50000000E+00  1.00000000E+01  1.00000011E+00
      2.00000000E+00  1.00000000E+01  1.00000017E+00
      2.50000000E+00  1.00000000E+01  1.00000024E+00
      3.00000000E+00  1.00000000E+01  1.00000030E+00
      3.50000000E+00  1.00000000E+01  1.00000037E+00
      4.00000000E+00  1.00000000E+01  1.00000043E+00
      4.50000000E+00  1.00000000E+01  1.00000050E+00
      5.00000000E+00  1.00000000E+01  1.00000056E+00
      5.50000000E+00  1.00000000E+01  1.00000063E+00
      6.00000000E+00  1.00000000E+01  1.00000069E+00
      6.50000000E+00  1.00000000E+01  1.00000076E+00
      7.00000000E+00  1.00000000E+01  1.00000082E+00
      7.50000000E+00  1.00000000E+01  1.00000084E+00
      0.00000000E+00  9.50000000E+00  1.00000000E+00
      5.00000000E-01  9.50000000E+00  1.00000000E+00
      1.00000000E+00  9.50000000E+00  1.00000003E+00
      1.50000000E+00  9.50000000E+00  1.00000010E+00
      2.00000000E+00  9.50000000E+00  1.00000016E+00
      2.50000000E+00  9.50000000E+00  1.00000023E+00
      3.00000000E+00  9.50000000E+00  1.00000029E+00
      3.50000000E+00  9.50000000E+00  1.00000036E+00
      4.00000000E+00  9.50000000E+00  1.00000042E+00
      4.50000000E+00  9.50000000E+00  1.00000049E+00
      5.00000000E+00  9.50000000E+00  1.00000055E+00
      5.50000000E+00  9.50000000E+00  1.00000062E+00
      6.00000000E+00  9.50000000E+00  1.00000068E+00
      6.50000000E+00  9.50000000E+00  1.00000075E+00
      7.00000000E+00  9.50000000E+00  1.00000081E+00
      7.50000000E+00  9.50000000E+00  1.00000084E+00
      0.00000000E+00  9.00000000E+00  1.00000004E+00
      5.00000000E-01  9.00000000E+00  1.00000003E+00
      1.00000000E+00  9.00000000E+00  1.00000004E+00
      1.50000000E+00  9.00000000E+00  1.00000010E+00
      2.00000000E+00  9.00000000E+00  1.00000016E+00
      2.50000000E+00  9.00000000E+00  1.00000023E+00
      3.00000000E+00  9.00000000E+00  1.00000029E+00
      3.50000000E+00  9.00000000E+00  1.00000036E+00
      4.00000000E+00  9.00000000E+00  1.00000042E+00
      4.50000000E+00  9.00000000E+00  1.00000049E+00
      5.00000000E+00  9.00000000E+00  1.00000055E+00
      5.50000000E+00  9.00000000E+00  1.00000062E+00
      6.00000000E+00  9.00000000E+00  1.00000068E+00
      6.50000000E+00  9.00000000E+00  1.00000075E+00
      7.00000000E+00  9.00000000E+00  1.00000081E+00
      7.50000000E+00  9.00000000E+00  1.00000084E+00
      0.00000000E+00  8.50000000E+00  1.00000007E+00
      5.00000000E-01  8.50000000E+00  1.00000007E+00
      1.00000000E+00  8.50000000E+00  1.00000007E+00
      1.50000000E+00  8.50000000E+00  1.00000009E+00
      2.00000000E+00  8.50000000E+00  1.00000015E+00
      2.50000000E+00  8.50000000E+00  1.00000022E+00
      3.00000000E+00  8.50000000E+00  1.00000028E+00
      3.50000000E+00  8.50000000E+00  1.00000035E+00
      4.00000000E+00  8.50000000E+00  1.00000041E+00
      4.50000000E+00  8.50000000E+00  1.00000048E+00
      5.00000000E+00  8.50000000E+00  1.00000054E+00
      5.50000000E+00  8.50000000E+00  1.00000061E+00
      6.00000000E+00  8.50000000E+00  1.00000067E+00
      6.50000000E+00  8.50000000E+00  1.00000074E+00
      7.00000000E+00  8.50000000E+00  1.00000080E+00
      7.50000000E+00  8.50000000E+00  1.00000084E+00
      5.00000000E-01  1.00000000E+01  9.94000000E-01
      1.00000000E+00  1.00000000E+01  9.94000043E-01
      1.50000000E+00  1.00000000E+01  9.94000108E-01
      2.00000000E+00  1.00000000E+01  9.94000173E-01
      2.50000000E+00  1.00000000E+01  9.94000238E-01
      3.00000000E+00  1.00000000E+01  9.94000303E-01
      3.50000000E+00  1.00000000E+01  9.94000368E-01
      4.00000000E+00  1.00000000E+01  9.94000433E-01
      4.50000000E+00  1.00000000E+01  9.94000498E-01
      5.00000000E+00  1.00000000E+01  9.94000563E-01
      5.50000000E+00  1.00000000E+01  9.94000628E-01
      6.00000000E+00  1.00000000E+01  9.94000693E-01
      6.50000000E+00  1.00000000E+01  9.94000758E-01
      7.00000000E+00  1.00000000E+01  9.94000823E-01
      7.50000000E+00  1.00000000E+01  9.94000845E-01
      0.00000000E+00  9.50000000E+00  9.94000000E-01
      5.00000000E-01  9.50000000E+00  9.94000000E-01
      1.00000000E+00  9.50000000E+00  9.94000033E-01
      1.50000000E+00  9.50000000E+00  9.94000098E-01
      2.00000000E+00  9.50000000E+00  9.94000163E-01
      2.50000000E+00  9.50000000E+00  9.94000227E-01
      3.00000000E+00  9.50000000E+00  9.94000292E-01
      3.50000000E+00  9.50000000E+00  9.94000358E-01
      4.00000000E+00  9.50000000E+00  9.94000423E-01
      4.50000000E+00  9.50000000E+00  9.94000488E-01
      5.00000000E+00  9.50000000E+00  9.94000553E-01
      5.50000000E+00  9.50000000E+00  9.94000618E-01
      6.00000000E+00  9.50000000E+00  9.94000683E-01
      6.50000000E+00  9.50000000E+00  9.94000747E-01
      7.00000000E+00  9.50000000E+00  9.94000812E-01
      7.50000000E+00  9.50000000E+00  9.94000845E-01
      0.00000000E+00  9.00000000E+00  9.94000043E-01
      5.00000000E-01  9.00000000E+00  9.94000033E-01
      1.00000000E+00  9.00000000E+00  9.94000043E-01
      1.50000000E+00  9.00000000E+00  9.94000098E-01
      2.00000000E+00  9.00000000E+00  9.94000163E-01
      2.50000000E+00  9.00000000E+00  9.94000227E-01
      3.00000000E+00  9.00000000E+00  9.94000292E-01
      3.50000000E+00  9.00000000E+00  9.94000358E-01
      4.00000000E+00  9.00000000E+00  9.94000423E-01
      4.50000000E+00  9.00000000E+00  9.94000488E-01
      5.00000000E+00  9.00000000E+00  9.94000553E-01
      5.50000000E+00  9.00000000E+00  9.94000618E-01
      6.00000000E+00  9.00000000E+00  9.94000683E-01
      6.50000000E+00  9.00000000E+00  9.94000747E-01
      7.00000000E+00  9.00000000E+00  9.94000812E-01
      7.50000000E+00  9.00000000E+00  9.94000845E-01
      0.00000000E+00  8.50000000E+00  9.94000065E-01
      5.00000000E-01  8.50000000E+00  9.94000065E-01
      1.00000000E+00  8.50000000E+00  9.94000065E-01
      1.50000000E+00  8.50000000E+00  9.94000087E-01
      2.00000000E+00  8.50000000E+00  9.94000152E-01
      2.50000000E+00  8.50000000E+00  9.94000217E-01
      3.00000000E+00  8.50000000E+00  9.94000282E-01
      3.50000000E+00  8.50000000E+00  9.94000347E-01
      4.00000000E+00  8.50000000E+00  9.94000412E-01
      4.50000000E+00  8.50000000E+00  9.94000477E-01
      5.00000000E+00  8.50000000E+00  9.94000542E-01
      5.50000000E+00  8.50000000E+00  9.94000607E-01
      6.00000000E+00  8.50000000E+00  9.94000672E-01
      6.50000000E+00  8.50000000E+00  9.94000737E-01
      7.00000000E+00  8.50000000E+00  9.94000802E-01
      7.50000000E+00  8.50000000E+00  9.94000845E-01
      5.00000000E-01  1.00000000E+01  9.82000000E-01
      1.00000000E+00  1.00000000E+01  9.82000043E-01
      1.50000000E+00  1.00000000E+01  9.82000108E-01
      2.00000000E+00  1.00000000E+01  9.82000173E-01
      2.50000000E+00  1.00000000E+01  9.82000238E-01
      3.00000000E+00  1.00000000E+01  9.82000303E-01
      3.50000000E+00  1.00000000E+01  9.82000368E-01
      4.00000000E+00  1.00000000E+01  9.82000433E-01
      4.50000000E+00  1.00000000E+01  9.82000498E-01
      5.00000000E+00  1.00000000E+01  9.82000563E-01
      5.50000000E+00  1.00000000E+01  9.82000628E-01
      6.00000000E+00  1.00000000E+01  9.82000693E-01
      6.50000000E+00  1.00000000E+01  9.82000758E-01
      7.00000000E+00  1.00000000E+01  9.82000823E-01
      7.50000000E+00  1.00000000E+01  9.82000845E-01
      0.00000000E+00  9.50000000E+00  9.82000000E-01
      5.00000000E-01  9.50000000E+00  9.82000000E-01
      1.00000000E+00  9.50000000E+00  9.82000033E-01
      1.50000000E+00  9.50000000E+00  9.82000098E-01
      2.00000000E+00  9.50000000E+00  9.82000163E-01
      2.50000000E+00  9.50000000E+00  9.82000227E-01
      3.00000000E+00  9.50000000E+00  9.82000292E-01
      3.50000000E+00  9.50000000E+00  9.82000358E-01
      4.00000000E+00  9.50000000E+00  9.82000423E-01
      4.50000000E+00  9.50000000E+00  9.82000488E-01
      5.00000000E+00  9.50000000E+00  9.82000553E-01
      5.50000000E+00  9.50000000E+00  9.82000618E-01
      6.00000000E+00  9.50000000E+00  9.82000683E-01
      6.50000000E+00  9.50000000E+00  9.82000747E-01
      7.00000000E+00  9.50000000E+00  9.82000812E-01
      7.50000000E+00  9.50000000E+00  9.82000845E-01
      0.00000000E+00  9.00000000E+00  9.82000043E-01
      5.00000000E-01  9.00000000E+00  9.82000033E-01
      1.00000000E+00  9.00000000E+00  9.82000043E-01
      1.50000000E+00  9.00000000E+00  9.82000098E-01
      2.00000000E+00  9.00000000E+00  9.82000163E-01
      2.50000000E+00  9.00000000E+00  9.82000227E-01
      3.00000000E+00  9.00000000E+00  9.82000292E-01
      3.50000000E+00  9.00000000E+00  9.82000358E-01
      4.00000000E+00  9.00000000E+00  9.82000423E-01
      4.50000000E+00  9.00000000E+00  9.82000488E-01
      5.00000000E+00  9.00000000E+00  9.82000553E-01
      5.50000000E+00  9.00000000E+00  9.82000618E-01
      6.00000000E+00  9.00000000E+00  9.82000683E-01
      6.50000000E+00  9.00000000E+00  9.82000747E-01
      7.00000000E+00  9.00000000E+00  9.82000812E-01
      7.50000000E+00  9.00000000E+00  9.82000845E-01
      0.00000000E+00  8.50000000E+00  9.82000065E-01
      5.00000000E-01  8.50000000E+00  9.82000065E-01
      1.00000000E+00  8.50000000E+00  9.82000065E-01
      1.50000000E+00  8.50000000E+00  9.82000087E-01
      2.00000000E+00  8.50000000E+00  9.82000152E-01
      2.50000000E+00  8.50000000E+00  9.82000217E-01
      3.00000000E+00  8.50000000E+00  9.82000282E-01
      3.50000000E+00  8.50000000E+00  9.82000347E-01
      4.00000000E+00  8.50000000E+00  9.82000412E-01
      4.50000000E+00  8.50000000E+00  9.82000477E-01
      5.00000000E+00  8.50000000E+00  9.82000542E-01
      5.50000000E+00  8.50000000E+00  9.82000607E-01
[...]
POINT_DATA     1008
SCALARS pressure float
LOOKUP_TABLE default
   4.8624008173280288E-009
   6.4994171025670098E-007
   8.4210771647400460E-007
   7.8881626663612270E-007
   7.1200247475312219E-007
   3.8230002290387574E-007
   5.7707670144864013E-007
   5.7446681406601094E-007
   1.6526074561712628E-007
   4.8348417634350648E-007
   2.6307563958270658E-007
   2.1636971247769300E-007
   1.6769873932456932E-007
   9.3085861627176932E-008
   9.1001477267078361E-008
   8.0943902690136210E-007
   7.7523380991841330E-007
   7.6002852345278437E-007
   8.1149572006882663E-007
   7.5285494138706139E-007
   7.1031874669528247E-007
   8.1616479489533944E-007
   4.8336217367229386E-007
   5.8746440696731590E-007
   6.9077850532084726E-007
   3.2885598400523063E-007
   4.5990675321383058E-007
   2.2241209544825534E-007
   2.2089840884342704E-007
   1.1180612916596797E-007
   8.7338747473651819E-008
   8.1851640934425282E-007
   9.6112219571604813E-007
   8.9835064183762627E-007
   9.0712093713764973E-007
   7.2966040687299750E-007
   5.0769647489242210E-007
   4.2177131795975716E-007
   4.8362961920731395E-007
   1.6761865546899821E-007
   4.3859214253581711E-007
   4.1284635469362152E-007
   1.0806929188078682E-007
   2.4006510133398368E-007
   9.1516096112764690E-008
   8.8499286890382792E-008
   5.3359968356759794E-008
   8.2293939033937280E-007
   9.1218529451068553E-007
   8.5960201421796412E-007
   6.2376649813345839E-007
   9.6943137384271157E-007
   5.0794165857941581E-007
   3.1972833250752488E-009
   2.4534727108108811E-009
   1.7264838895010171E-009
   2.0352612200489363E-009
   1.8056787579937396E-009
   1.0951494592055426E-009
   1.0756722579293430E-009
   6.4784939283401442E-010
   3.9635767319029942E-010
   1.0720154874610371E-010
   6.0000202765220240E-003
   6.0006508440475451E-003
   6.0008402600479124E-003
   6.0007877788486640E-003
   6.0007106928625150E-003
   6.0003884706839152E-003
   6.0005754641590924E-003
   6.0005722495170008E-003
   6.0001730964806248E-003
   6.0004797358777506E-003
   6.0002648880226857E-003
   6.0002164388343552E-003
   6.0001676657867051E-003
   6.0000931568504551E-003
   6.0000904858141533E-003
   6.0008100326027118E-003
   6.0007755763419575E-003
   6.0007611439212996E-003
   6.0008112471091023E-003
   6.0007527211129218E-003
   6.0007094881029807E-003
   6.0008097554878452E-003
   6.0004850646292272E-003
   6.0005848049699889E-003
   6.0006841022362967E-003
   6.0003310964726973E-003
   6.0004553134684743E-003
   6.0002230610931087E-003
   6.0002193105708314E-003
   6.0001116172338689E-003
   6.0000868655039948E-003
   6.0008194874975156E-003
   6.0009586041025785E-003
   6.0008974652241472E-003
   6.0009042446461077E-003
   6.0007301007870134E-003
   6.0005099633968278E-003
   6.0004233028587229E-003
   6.0004807179816679E-003
   6.0001726281576897E-003
   6.0004362239837218E-003
   6.0004094191394367E-003
   6.0001114515338466E-003
   6.0002378549686101E-003
   6.0000924065206854E-003
   6.0000878688835175E-003
   6.0000531563333473E-003
   6.0008237339614530E-003
   6.0009109571980421E-003
   6.0008590818474740E-003
   6.0006294482784764E-003
   6.0009627587738461E-003
   6.0005091560717616E-003
   6.0000132923996637E-003
   6.0000102138273058E-003
   6.0000072118716295E-003
   6.0000084678075048E-003
   6.0000075090271268E-003
   6.0000045738277021E-003
   6.0000044735213408E-003
   6.0000027014796981E-003
   6.0000016497290115E-003
   6.0000004482993951E-003
   1.8000050279813259E-002
   1.8000652645013313E-002
   1.8000836205493875E-002
   1.8000785067358385E-002
   1.8000707585388114E-002
   1.8000399953096470E-002
   1.8000571682434283E-002
   1.8000567081829243E-002
   1.8000187782688172E-002
   1.8000472014526994E-002
   1.8000267696089194E-002
   1.8000216252838781E-002
   1.8000167239340541E-002
   1.8000092978541448E-002
   1.8000089215077855E-002
   1.8000811000424471E-002
   1.8000776053002529E-002
   1.8000763026892495E-002
   1.8000810295923503E-002
   1.8000752050896119E-002
   1.8000707320500426E-002
   1.8000796766197442E-002
   1.8000487840863139E-002
   1.8000578773445741E-002
   1.8000670159705932E-002
   1.8000334817819479E-002
   1.8000445965355567E-002
   1.8000223809490113E-002
   1.8000215922415602E-002
   1.8000110904157419E-002
   1.8000085658269400E-002
   1.8000820945129854E-002
   1.8000953197498615E-002
   1.8000895344778299E-002
   1.8000898225512062E-002
   1.8000730422096562E-002
   1.8000514198381015E-002
   1.8000425902484726E-002
   1.8000474891459985E-002
   1.8000182091364655E-002
   1.8000430956543738E-002
   1.8000402278066704E-002
   1.8000117842302852E-002
   1.8000233406616811E-002
   1.8000093909773023E-002
   1.8000086507360531E-002
   1.8000052547459986E-002
   1.8000824755580444E-002
   1.8000907911778431E-002
   1.8000857476168877E-002
   1.8000640107682507E-002
   1.8000949338598721E-002
   1.8000511213496655E-002
   1.8000032879925947E-002
   1.8000025316595437E-002
   1.8000018026513673E-002
   1.8000020952068832E-002
   1.8000018557388548E-002
   1.8000011427060432E-002
   1.8000011057327198E-002
   1.8000006720188519E-002
   1.8000004081815534E-002
   1.8000001122189777E-002
   3.6000093211084827E-002
   3.6000655531749942E-002
   3.6000830439624702E-002
   3.6000781121410433E-002
   3.6000703180073472E-002
   3.6000415859764288E-002
   3.6000566392148985E-002
   3.6000559705997123E-002
   3.6000208124767730E-002
   3.6000461244514705E-002
   3.6000271392536427E-002
   3.6000215978427487E-002
   3.6000166543347124E-002
   3.6000092668407875E-002
   3.6000087375564684E-002
   3.6000812424457039E-002
   3.6000776919098094E-002
   3.6000765704041857E-002
   3.6000808848459000E-002
   3.6000751007027036E-002
   3.6000704120754720E-002
   3.6000778529922568E-002
   3.6000491485086383E-002
   3.6000570155049726E-002
   3.6000650474500337E-002
   3.6000339684968088E-002
   3.6000432838317546E-002
   3.6000224686833990E-002
   3.6000211117809586E-002
   3.6000109817423097E-002
   3.6000083897126459E-002
   3.6000822897330399E-002
   3.6000945509722715E-002
   3.6000892223804329E-002
   3.6000889754867739E-002
   3.6000730708266065E-002
   3.6000520219057509E-002
   3.6000429689300423E-002
   3.6000467004102726E-002
   3.6000195461690102E-002
   3.6000423551341490E-002
   3.6000392341672259E-002
   3.6000126768625317E-002
   3.6000227271764218E-002
   3.6000095996092912E-002
   3.6000084603250389E-002
   3.6000051652291198E-002
   3.6000826077649331E-002
   3.6000903469932670E-002
   3.6000855199997427E-002
   3.6000654859316326E-002
   3.6000930518761187E-002
   3.6000514316012838E-002
   3.6000060846563930E-002
   3.6000046975970139E-002
   3.6000033858989720E-002
   3.6000038775677208E-002
   3.6000034283187432E-002
   3.6000021445775528E-002
   3.6000020434107258E-002
   3.6000012534466920E-002
   3.6000007554031592E-002
   3.6000002113617431E-002
   6.0000146739414027E-002
   6.0000659682440324E-002
   6.0000823313029271E-002
   6.0000776080200879E-002
   6.0000697748277002E-002
   6.0000434809347997E-002
   6.0000559986018373E-002
   6.0000550535161352E-002
   6.0000232346564104E-002
   6.0000448268770483E-002
   6.0000275455718850E-002
   6.0000215609687810E-002
   6.0000165526292566E-002
   6.0000092181009705E-002
   6.0000085038813461E-002
   6.0000814270449745E-002
   6.0000778334834005E-002
   6.0000769021828021E-002
   6.0000806893608649E-002
   6.0000749551468988E-002
   6.0000699960698692E-002
   6.0000756356136824E-002
   6.0000495483268038E-002
   6.0000559415107443E-002
   6.0000626343335792E-002
   6.0000344987107504E-002
   6.0000416863706774E-002
   6.0000225454905569E-002
   6.0000205188656737E-002
   6.0000108345603743E-002
   6.0000081636217881E-002
   6.0000825105173287E-002
   6.0000935994915648E-002
   6.0000888180579734E-002
   6.0000879412986909E-002
   6.0000730771646089E-002
   6.0000527667751540E-002
   6.0000434542779750E-002
   6.0000457929535941E-002
   6.0000211873751340E-002
   6.0000414540529332E-002
   6.0000380415427469E-002
   6.0000137549504215E-002
   6.0000220003273048E-002
   6.0000098494183161E-002
   6.0000082299604497E-002
   6.0000050493387497E-002
   6.0000827493187310E-002
   6.0000897774402560E-002
   6.0000852378608915E-002
   6.0000672440533559E-002
   6.0000907648813349E-002
   6.0000518463996753E-002
   6.0000095676090603E-002
   6.0000074116392736E-002
   6.0000054235509782E-002
   6.0000060965166427E-002
   6.0000053781298995E-002
   6.0000034310746887E-002
   6.0000032073362873E-002
   6.0000019900417048E-002
   6.0000011876091830E-002
   6.0000003398622416E-002
   9.0000208090579167E-002
   9.0000665254725318E-002
   9.0000815239289961E-002
   9.0000770117828338E-002
   9.0000691590279208E-002
   9.0000455272010685E-002
   9.0000552886463012E-002
   9.0000540047664196E-002
   9.0000258474481398E-002
   9.0000434001489091E-002
   9.0000279336118746E-002
   9.0000215124749303E-002
   9.0000164140530248E-002
   9.0000091465673546E-002
   9.0000082288538244E-002
   9.0000816492607938E-002
   9.0000780461475971E-002
   9.0000772808872073E-002
   9.0000804435289183E-002
   9.0000747646695411E-002
   9.0000694947546311E-002
   9.0000731716236279E-002
   9.0000499306212872E-002
   9.0000547100206704E-002
   9.0000599235553966E-002
   9.0000349985709036E-002
   9.0000399076494209E-002
   9.0000225874929118E-002
   9.0000198464395748E-002
   9.0000106485656026E-002
   9.0000078940850992E-002
   9.0000827310569548E-002
   9.0000925180056188E-002
   9.0000883326608591E-002
   9.0000867844383853E-002
   9.0000730428498224E-002
   9.0000536128980707E-002
   9.0000440322517708E-002
   9.0000448616321269E-002
   9.0000230354797928E-002
   9.0000404538648923E-002
   9.0000367392187766E-002
   9.0000149436240628E-002
   9.0000212204816854E-002
   9.0000101219616879E-002
   9.0000079754901929E-002
   9.0000049102824942E-002
   9.0000828779325845E-002
   9.0000891006597278E-002
   9.0000849139543176E-002
   9.0000691465190324E-002
   9.0000882235314661E-002
   9.0000523632035020E-002
   9.0000135598790179E-002
   9.0000105478925452E-002
   9.0000078525101515E-002
   9.0000086387406059E-002
   9.0000076008437915E-002
   9.0000049594848391E-002
   9.0000045367763876E-002
   9.0000028514535368E-002
   9.0000016826371376E-002
   9.0000004943194448E-002
  0.12000026364827246     
  0.12000067115847168     
  0.12000080802368465     
  0.12000076451547284     
  0.12000068605423006     
  0.12000047262012560     
  0.12000054664833242     
  0.12000053055483752     
  0.12000028058139266     
  0.12000042160581519     
  0.12000028210675437     
  0.12000021459264661     
  0.12000016266378311     
  0.12000009064763890     
  0.12000007970930426     
  0.12000081861692029     
  0.12000078294508545     
  0.12000077624882322     
  0.12000080198910029     
  0.12000074566927654     
  0.12000069015710953     
  0.12000071005058462     
  0.12000050207099780     
  0.12000053589632910     
  0.12000057510131634     
  0.12000035350620669     
  0.12000038338022853     
  0.12000022581903236     
  0.12000019240726206     
  0.12000010462194505     
  0.12000007637649054     
  0.12000082900095931     
  0.12000091543421533     
  0.12000087870363974     
  0.12000085757797049     
  0.12000072972063293     
  0.12000054374790597     
  0.12000044581444758     
  0.12000044121051345     
  0.12000024686833692     
  0.12000039578100845     
  0.12000035617047355     
  0.12000015981210198     
  0.12000020562222011     
  0.12000010357351514     
  0.12000007752960565     
  0.12000004777712482     
  0.12000082964326410     
  0.12000088460148127     
  0.12000084614922603     
  0.12000070773151873     
  0.12000085981454903     
  0.12000052873803706     
  0.12000017196105670     
  0.12000013428145231     
  0.12000010151815965     
  0.12000010950666075     
  0.12000009611735958     
  0.12000006400224869     
  0.12000005742843733     
  0.12000003650861110     
  0.12000002132429601     
  0.12000000641918493     
  0.18000036079361956     
  0.18000068332023511     
  0.18000079568844593     
  0.18000075428743961     
  0.18000067642317655     
  0.18000049966223300     
  0.18000053623412518     
  0.18000051393310240     
  0.18000031491390034     
  0.18000040121258093     
  0.18000028500356316     
  0.18000021337042080     
  0.18000015949475756     
  0.18000008877340140     
  0.18000007498000489     
  0.18000082260567724     
  0.18000078830353652     
  0.18000078222189281     
  0.18000079720041767     
  0.18000074155744575     
  0.18000068127041979     
  0.18000067448129364     
  0.18000050504798348     
  0.18000051649266852     
  0.18000053465004931     
  0.18000035695004774     
  0.18000035740343132     
  0.18000022458870707     
  0.18000018204384088     
  0.18000010092921007     
  0.18000007164290691     
  0.18000083105029399     
  0.18000089880256742     
  0.18000087016223509     
  0.18000084041655584     
  0.18000072747230184     
  0.18000055673277732     
  0.18000045601122297     
  0.18000043122255782     
  0.18000027475352443     
  0.18000038157387882     
  0.18000033837428095     
  0.18000017668555984     
  0.18000019555329699     
  0.18000010734227742     
  0.18000007390144429     
  0.18000004533820560     
  0.18000083003514666     
  0.18000087294817610     
  0.18000084087300455     
  0.18000073278746723     
  0.18000082334698042     
  0.18000053870020372     
  0.18000023470711307     
  0.18000018496386083     
  0.18000014364178871     
  0.18000014958422719     
  0.18000013070874052     
  0.18000009020701516     
  0.18000007828682471     
  0.18000005074515404     
  0.18000002912873128     
  0.18000000913822442     
  0.24000044080217284     
  0.24000069565989657     
  0.24000078583593021     
  0.24000074526310056     
  0.24000066838862208     
  0.24000051890952789     
  0.24000052787779158     
  0.24000050009438359     
  0.24000033912133931     
  0.24000038532214524     
  0.24000028548532690     
  0.24000021188131226     
  0.24000015623078694     
  0.24000008666533659     
  0.24000007073499127     
  0.24000082621696078     
  0.24000079424921830     
  0.24000078726953483     
  0.24000079267214214     
  0.24000073737600433     
  0.24000067332049113     
  0.24000064676145708     
  0.24000050587831992     
  0.24000050035423706     
  0.24000050223159769     
  0.24000035730256447     
  0.24000033683457081     
  0.24000022248217209     
  0.24000017348018685     
  0.24000009736634062     
  0.24000006733256773     
  0.24000083190858204     
  0.24000088521044960     
  0.24000086254484954     
  0.24000082662535469     
  0.24000072462879871     
  0.24000056733170075     
  0.24000046531140717     
  0.24000042576986924     
  0.24000029741030832     
  0.24000037081937042     
  0.24000032516324196     
  0.24000018975803539     
  0.24000018845287652     
  0.24000011021766088     
  0.24000007108258770     
  0.24000004315515749     
  0.24000082946533460     
  0.24000086256609635     
  0.24000083615980444     
  0.24000075094722823     
  0.24000079473157052     
  0.24000054810964550     
  0.24000028710640856     
  0.24000022812070554     
  0.24000018099676559     
  0.24000018302585874     
  0.24000015931871596     
  0.24000011319769729     
  0.24000009568093833     
  0.24000006295439899     
  0.24000003562030103     
  0.24000001157970535     
  0.39000058804087290     
  0.39000072405405994     
  0.39000076876869694     
  0.39000072702130451     
  0.39000065296640957     
  0.39000054372726944     
  0.39000051310847089     
  0.39000047402211990     
  0.39000036926573650     
  0.39000035837761521     
  0.39000028016810884     
  0.39000020721853762     
  0.39000014801397004     
  0.39000008085551280     
  0.39000006178675350     
  0.39000083386351592     
  0.39000080805456533     
  0.39000079672510207     
  0.39000078278458844     
  0.39000072709788891     
  0.39000065738890566     
  0.39000060346774978     
  0.39000050240490314     
  0.39000047166120683     
  0.39000044830668662     
  0.39000034991990357     
  0.39000030314546835     
  0.39000021522792400     
  0.39000015816883438     
  0.39000008925112267     
  0.39000005836325080     
  0.39000083031253446     
  0.39000086180825705     
  0.39000084732848012     
  0.39000080321696290     
  0.39000071646691487     
  0.39000058556281081     
  0.39000048510369789     
  0.39000042582120281     
  0.39000033657190736     
  0.39000035566872193     
  0.39000030689572679     
  0.39000021023074560     
  0.39000017993162928     
  0.39000011461724404     
  0.39000006663769515     
  0.39000003880637968     
  0.39000082400520425     
  0.39000084213718361     
  0.39000082645631257     
  0.39000077303834801     
  0.39000075157018876     
  0.39000056888160239     
  0.39000037974055535     
  0.39000030889002879     
  0.39000025481208161     
  0.39000024345601747     
  0.39000021019611686     
  0.39000015760316936     
  0.39000012720701538     
  0.39000008576909095     
  0.39000004733875632     
  0.39000001635674353     
  0.54000068136593271     
  0.54000074758428751     
  0.54000075891017751     
  0.54000071362336377     
  0.54000064186472563     
  0.54000055266582836     
  0.54000050297784286     
  0.54000045623507009     
  0.54000037868451700     
  0.54000034096433214     
  0.54000027219155433     
  0.54000020182694242     
  0.54000014063512158     
  0.54000007505639047     
  0.54000005446412747     
  0.54000083962363521     
  0.54000082046644104     
  0.54000080352673319     
  0.54000077510168565     
  0.54000071807043704     
  0.54000064592375985     
  0.54000057947118718     
  0.54000049755693158     
  0.54000045327369361     
  0.54000041561073409     
  0.54000034002811281     
  0.54000028261447819     
  0.54000020811891603     
  0.54000014778331840     
  0.54000008245398778     
  0.54000005113610416     
  0.54000082719530462     
  0.54000084720205843     
  0.54000083633673679     
  0.54000078820101183     
  0.54000070913779330     
  0.54000059706579229     
  0.54000050099499253     
  0.54000043317579149     
  0.54000036215766700     
  0.54000034936303987     
  0.54000029874423250     
  0.54000022207969811     
  0.54000017710525172     
  0.54000011710839235     
  0.54000006398107681     
  0.54000003555835097     
  0.54000081779643805     
  0.54000082706060681     
  0.54000081834215730     
  0.54000078097182902     
  0.54000072728721538     
  0.54000058528166683     
  0.54000044081314047     
  0.54000036515219785     
  0.54000030811562150     
  0.54000028370915587     
  0.54000024345753517     
  0.54000018858800614     
  0.54000014828639831     
  0.54000010117051012     
  0.54000005491309677     
  0.54000001977049450     
  0.84000077850121302     
  0.84000077825996422     
  0.84000074988670048     
  0.84000069662924459     
  0.84000062750509219     
  0.84000055243537730     
  0.84000049078691230     
  0.84000043550393233     
  0.84000037387259985     
  0.84000031994593427     
  0.84000025684198931     
  0.84000019129457537     
  0.84000012892024789     
  0.84000006491670465     
  0.84000004358770519     
  0.84000084691461330     
  0.84000083658758262     
  0.84000081185173647     
  0.84000076536937496     
  0.84000070478414146     
  0.84000063281855408     
  0.84000056115367250     
  0.84000049069482274     
  0.84000043558782367     
  0.84000038538899291     
  0.84000032330766861     
  0.84000026239820280     
  0.84000019722520969     
  0.84000013564775800     
  0.84000007251164377     
  0.84000004099501191     
  0.84000082048006208     
  0.84000083313185980     
  0.84000082350843264     
  0.84000077200816192     
  0.84000069900466645     
  0.84000060866642068     
  0.84000052313509788     
  0.84000045265704870     
  0.84000039052379349     
  0.84000034972882753     
  0.84000029617928906     
  0.84000023284454262     
  0.84000017784086223     
  0.84000011918184259     