# vtk DataFile Version 2.0
3D Unstructured Grid of Linear Triangles
ASCII
DATASET UNSTRUCTURED_GRID
FIELD FieldData  1
TIME 1 1 double
       36005.01532
POINTS     1008 float
      5.00000000E-01  1.00000000E+01  1.00000000E+00
      1.00000000E+00  1.00000000E+01  1.00000004E+00
      1.50000000E+00  1.00000000E+01  1.00000011E+00
      2.00000000E+00  1.00000000E+01  1.00000017E+00
      2.50000000E+00  1.00000000E+01  1.00000024E+00
      3.00000000E+00  1.00000000E+01  1.00000030E+00
      3.50000000E+00  1.00000000E+01  1.00000037E+00
      4.00000000E+00  1.00000000E+01  1.00000043E+00
      4.50000000E+00  1.00000000E+01  1.00000050E+00
      5.00000000E+00  1.00000000E+01  1.00000056E+00
      5.50000000E+00  1.00000000E+01  1.00000063E+00
      6.00000000E+00  1.00000000E+01  1.00000069E+00
      6.50000000E+00  1.00000000E+01  1.00000076E+00
      7.00000000E+00  1.00000000E+01  1.00000082E+00
      7.50000000E+00  1.00000000E+01  1.00000084E+00
      0.00000000E+00  9.50000000E+00  1.00000000E+00
      5.00000000E-01  9.50000000E+00  1.00000000E+00
      1.00000000E+00  9.50000000E+00  1.00000003E+00
      1.50000000E+00  9.50000000E+00  1.00000010E+00
      2.00000000E+00  9.50000000E+00  1.00000016E+00
      2.50000000E+00  9.50000000E+00  1.00000023E+00
      3.00000000E+00  9.50000000E+00  1.00000029E+00
      3.50000000E+00  9.50000000E+00  1.00000036E+00
      4.00000000E+00  9.50000000E+00  1.00000042E+00
      4.50000000E+00  9.50000000E+00  1.00000049E+00
      5.00000000E+00  9.50000000E+00  1.00000055E+00
      5.50000000E+00  9.50000000E+00  1.00000062E+00
      6.00000000E+00  9.50000000E+00  1.00000068E+00
      6.50000000E+00  9.50000000E+00  1.00000075E+00
      7.00000000E+00  9.50000000E+00  1.00000081E+00
      7.50000000E+00  9.50000000E+00  1.00000084E+00
      0.00000000E+00  9.00000000E+00  1.00000004E+00
      5.00000000E-01  9.00000000E+00  1.00000003E+00
      1.00000000E+00  9.00000000E+00  1.00000004E+00
      1.50000000E+00  9.00000000E+00  1.00000010E+00
      2.00000000E+00  9.00000000E+00  1.00000016E+00
      2.50000000E+00  9.00000000E+00  1.00000023E+00
      3.00000000E+00  9.00000000E+00  1.00000029E+00
      3.50000000E+00  9.00000000E+00  1.00000036E+00
      4.00000000E+00  9.00000000E+00  1.00000042E+00
      4.50000000E+00  9.00000000E+00  1.00000049E+00
      5.00000000E+00  9.00000000E+00  1.00000055E+00
      5.50000000E+00  9.00000000E+00  1.00000062E+00
      6.00000000E+00  9.00000000E+00  1.00000068E+00
      6.50000000E+00  9.00000000E+00  1.00000075E+00
      7.00000000E+00  9.00000000E+00  1.00000081E+00
      7.50000000E+00  9.00000000E+00  1.00000084E+00
      0.00000000E+00  8.50000000E+00  1.00000007E+00
      5.00000000E-01  8.50000000E+00  1.00000007E+00
      1.00000000E+00  8.50000000E+00  1.00000007E+00
      1.50000000E+00  8.50000000E+00  1.00000009E+00
      2.00000000E+00  8.50000000E+00  1.00000015E+00
      2.50000000E+00  8.50000000E+00  1.00000022E+00
      3.00000000E+00  8.50000000E+00  1.00000028E+00
      3.50000000E+00  8.50000000E+00  1.00000035E+00
      4.00000000E+00  8.50000000E+00  1.00000041E+00
      4.50000000E+00  8.50000000E+00  1.00000048E+00
      5.00000000E+00  8.50000000E+00  1.00000054E+00
      5.50000000E+00  8.50000000E+00  1.00000061E+00
      6.00000000E+00  8.50000000E+00  1.00000067E+00
      6.50000000E+00  8.50000000E+00  1.00000074E+00
      7.00000000E+00  8.50000000E+00  1.00000080E+00
      7.50000000E+00  8.50000000E+00  1.00000084E+00
      5.00000000E-01  1.00000000E+01  9.94000000E-01
      1.00000000E+00  1.00000000E+01  9.94000043E-01
      1.50000000E+00  1.00000000E+01  9.94000108E-01
      2.00000000E+00  1.00000000E+01  9.94000173E-01
      2.50000000E+00  1.00000000E+01  9.94000238E-01
      3.00000000E+00  1.00000000E+01  9.94000303E-01
      3.50000000E+00  1.00000000E+01  9.94000368E-01
      4.00000000E+00  1.00000000E+01  9.94000433E-01
      4.50000000E+00  1.00000000E+01  9.94000498E-01
      5.00000000E+00  1.00000000E+01  9.94000563E-01
      5.50000000E+00  1.00000000E+01  9.94000628E-01
      6.00000000E+00  1.00000000E+01  9.94000693E-01
      6.50000000E+00  1.00000000E+01  9.94000758E-01
      7.00000000E+00  1.00000000E+01  9.94000823E-01
      7.50000000E+00  1.00000000E+01  9.94000845E-01
      0.00000000E+00  9.50000000E+00  9.94000000E-01
      5.00000000E-01  9.50000000E+00  9.94000000E-01
      1.00000000E+00  9.50000000E+00  9.94000033E-01
      1.50000000E+00  9.50000000E+00  9.94000098E-01
      2.00000000E+00  9.50000000E+00  9.94000163E-01
      2.50000000E+00  9.50000000E+00  9.94000227E-01
      3.00000000E+00  9.50000000E+00  9.94000292E-01
      3.50000000E+00  9.50000000E+00  9.94000358E-01
      4.00000000E+00  9.50000000E+00  9.94000423E-01
      4.50000000E+00  9.50000000E+00  9.94000488E-01
      5.00000000E+00  9.50000000E+00  9.94000553E-01
      5.50000000E+00  9.50000000E+00  9.94000618E-01
      6.00000000E+00  9.50000000E+00  9.94000683E-01
      6.50000000E+00  9.50000000E+00  9.94000747E-01
      7.00000000E+00  9.50000000E+00  9.94000812E-01
      7.50000000E+00  9.50000000E+00  9.94000845E-01
      0.00000000E+00  9.00000000E+00  9.94000043E-01
      5.00000000E-01  9.00000000E+00  9.94000033E-01
      1.00000000E+00  9.00000000E+00  9.94000043E-01
      1.50000000E+00  9.00000000E+00  9.94000098E-01
      2.00000000E+00  9.00000000E+00  9.94000163E-01
      2.50000000E+00  9.00000000E+00  9.94000227E-01
      3.00000000E+00  9.00000000E+00  9.94000292E-01
      3.50000000E+00  9.00000000E+00  9.94000358E-01
      4.00000000E+00  9.00000000E+00  9.94000423E-01
      4.50000000E+00  9.00000000E+00  9.94000488E-01
      5.00000000E+00  9.00000000E+00  9.94000553E-01
      5.50000000E+00  9.00000000E+00  9.94000618E-01
      6.00000000E+00  9.00000000E+00  9.94000683E-01
      6.50000000E+00  9.00000000E+00  9.94000747E-01
      7.00000000E+00  9.00000000E+00  9.94000812E-01
      7.50000000E+00  9.00000000E+00  9.94000845E-01
      0.00000000E+00  8.50000000E+00  9.94000065E-01
      5.00000000E-01  8.50000000E+00  9.94000065E-01
      1.00000000E+00  8.50000000E+00  9.94000065E-01
      1.50000000E+00  8.50000000E+00  9.94000087E-01
      2.00000000E+00  8.50000000E+00  9.94000152E-01
      2.50000000E+00  8.50000000E+00  9.94000217E-01
      3.00000000E+00  8.50000000E+00  9.94000282E-01
      3.50000000E+00  8.50000000E+00  9.94000347E-01
      4.00000000E+00  8.50000000E+00  9.94000412E-01
      4.50000000E+00  8.50000000E+00  9.94000477E-01
      5.00000000E+00  8.50000000E+00  9.94000542E-01
      5.50000000E+00  8.50000000E+00  9.94000607E-01
      6.00000000E+00  8.50000000E+00  9.94000672E-01
      6.50000000E+00  8.50000000E+00  9.94000737E-01
      7.00000000E+00  8.50000000E+00  9.94000802E-01
      7.50000000E+00  8.50000000E+00  9.94000845E-01
      5.00000000E-01  1.00000000E+01  9.82000000E-01
      1.00000000E+00  1.00000000E+01  9.82000043E-01
      1.50000000E+00  1.00000000E+01  9.82000108E-01
      2.00000000E+00  1.00000000E+01  9.82000173E-01
      2.50000000E+00  1.00000000E+01  9.82000238E-01
      3.00000000E+00  1.00000000E+01  9.82000303E-01
      3.50000000E+00  1.00000000E+01  9.82000368E-01
      4.00000000E+00  1.00000000E+01  9.82000433E-01
      4.50000000E+00  1.00000000E+01  9.82000498E-01
      5.00000000E+00  1.00000000E+01  9.82000563E-01
      5.50000000E+00  1.00000000E+01  9.82000628E-01
      6.00000000E+00  1.00000000E+01  9.82000693E-01
      6.50000000E+00  1.00000000E+01  9.82000758E-01
      7.00000000E+00  1.00000000E+01  9.82000823E-01
      7.50000000E+00  1.00000000E+01  9.82000845E-01
      0.00000000E+00  9.50000000E+00  9.82000000E-01
      5.00000000E-01  9.50000000E+00  9.82000000E-01
      1.00000000E+00  9.50000000E+00  9.82000033E-01
      1.50000000E+00  9.50000000E+00  9.82000098E-01
      2.00000000E+00  9.50000000E+00  9.82000163E-01
      2.50000000E+00  9.50000000E+00  9.82000227E-01
      3.00000000E+00  9.50000000E+00  9.82000292E-01
      3.50000000E+00  9.50000000E+00  9.82000358E-01
      4.00000000E+00  9.50000000E+00  9.82000423E-01
      4.50000000E+00  9.50000000E+00  9.82000488E-01
      5.00000000E+00  9.50000000E+00  9.82000553E-01
      5.50000000E+00  9.50000000E+00  9.82000618E-01
      6.00000000E+00  9.50000000E+00  9.82000683E-01
      6.50000000E+00  9.50000000E+00  9.82000747E-01
      7.00000000E+00  9.50000000E+00  9.82000812E-01
      7.50000000E+00  9.50000000E+00  9.82000845E-01
      0.00000000E+00  9.00000000E+00  9.82000043E-01
      5.00000000E-01  9.00000000E+00  9.82000033E-01
      1.00000000E+00  9.00000000E+00  9.82000043E-01
      1.50000000E+00  9.00000000E+00  9.82000098E-01
      2.00000000E+00  9.00000000E+00  9.82000163E-01
      2.50000000E+00  9.00000000E+00  9.82000227E-01
      3.00000000E+00  9.00000000E+00  9.82000292E-01
      3.50000000E+00  9.00000000E+00  9.82000358E-01
      4.00000000E+00  9.00000000E+00  9.82000423E-01
      4.50000000E+00  9.00000000E+00  9.82000488E-01
      5.00000000E+00  9.00000000E+00  9.82000553E-01
      5.50000000E+00  9.00000000E+00  9.82000618E-01
      6.00000000E+00  9.00000000E+00  9.82000683E-01
      6.50000000E+00  9.00000000E+00  9.82000747E-01
      7.00000000E+00  9.00000000E+00  9.82000812E-01
      7.50000000E+00  9.00000000E+00  9.82000845E-01
      0.00000000E+00  8.50000000E+00  9.82000065E-01
      5.00000000E-01  8.50000000E+00  9.82000065E-01
      1.00000000E+00  8.50000000E+00  9.82000065E-01
      1.50000000E+00  8.50000000E+00  9.82000087E-01
      2.00000000E+00  8.50000000E+00  9.82000152E-01
      2.50000000E+00  8.50000000E+00  9.82000217E-01
      3.00000000E+00  8.50000000E+00  9.82000282E-01
      3.50000000E+00  8.50000000E+00  9.82000347E-01
      4.00000000E+00  8.50000000E+00  9.82000412E-01
      4.50000000E+00  8.50000000E+00  9.82000477E-01
      5.00000000E+00  8.50000000E+00  9.82000542E-01
      5.50000000E+00  8.50000000E+00  9.82000607E-01
[...]
POINT_DATA     1008
SCALARS pressure float
LOOKUP_TABLE default
   3.5009111727071625E-009
   5.1667048803033072E-007
   5.3239710746914547E-007
   4.2556435520441280E-007
   3.9631233449261115E-007
   2.1509144835331162E-007
   2.4891987155571581E-007
   2.2176243040557734E-007
   6.0567248519965245E-008
   1.4581469062565747E-007
   7.3165818250743322E-008
   3.0023642369810842E-008
   1.4669826114921722E-008
  -1.0732279268411823E-007
  -1.3686944379605631E-007
   5.9388216689409107E-007
   5.4206120916527346E-007
   5.3068680922170713E-007
   5.0229714484751222E-007
   4.9686460517716593E-007
   3.9742623874574903E-007
   4.1320412401113218E-007
   2.5243429600915443E-007
   2.2123441757309967E-007
   2.2483396405198812E-007
   1.0213353722330841E-007
   1.4305129919830214E-007
   4.2758107498216014E-008
   1.4702503154927926E-008
  -9.9780013239947300E-008
  -1.3945713440141136E-007
   5.6465795524122812E-007
   6.1466355989281123E-007
   6.2519742832802574E-007
   5.6722343609207517E-007
   4.2052213318427246E-007
   3.6600262955548355E-007
   1.7580419134146800E-007
   2.5630097450218135E-007
   7.3796290381740598E-008
   1.3518733145979793E-007
   1.3032725627362920E-007
   3.5489921378184634E-008
   7.0058406350596712E-008
  -3.4804399456077813E-008
  -1.0955830318649964E-007
  -1.4462725659015389E-007
   5.4993680697147079E-007
   5.6070739504269165E-007
   5.1975708186282348E-007
   4.7485452665068997E-007
   5.6302767737047651E-007
   2.8067920428958820E-007
   1.7011929727532758E-009
   1.2842442709791443E-009
   7.9177791801333940E-010
   7.4465927857556437E-010
   6.0306165370511360E-010
   3.0787222880981283E-010
   1.4556392810693150E-010
  -3.9582235525359264E-008
  -1.0342055387424775E-007
  -1.4750657551600304E-007
   6.0000145957633611E-003
   6.0005155580845487E-003
   6.0005313498328406E-003
   6.0004263002448460E-003
   6.0003956586521167E-003
   6.0002178187263805E-003
   6.0002487497485390E-003
   6.0002210081690158E-003
   6.0000631112343359E-003
   6.0001446756421991E-003
   6.0000734040323795E-003
   6.0000299951649509E-003
   6.0000135702526552E-003
   5.9998926752527701E-003
   5.9998631300484679E-003
   6.0005937078083729E-003
   6.0005421729553664E-003
   6.0005313270975729E-003
   6.0005027668269652E-003
   6.0004956867385677E-003
   6.0003974470057425E-003
   6.0004102837009562E-003
   6.0002527200172439E-003
   6.0002206395967476E-003
   6.0002229293169371E-003
   6.0001028926491996E-003
   6.0001413424804508E-003
   6.0000427429634691E-003
   6.0000137097957450E-003
   5.9999002173012090E-003
   5.9998605419450237E-003
   6.0005648496280145E-003
   6.0006137270606427E-003
   6.0006238504792921E-003
   6.0005659495166756E-003
   6.0004216615970442E-003
   6.0003654392880822E-003
   6.0001780372692052E-003
   6.0002543652491165E-003
   6.0000758016817328E-003
   6.0001347714310881E-003
   6.0001291810689245E-003
   6.0000362334953622E-003
   6.0000686486259723E-003
   5.9999651909826181E-003
   5.9998904408109423E-003
   5.9998553719699350E-003
   6.0005499706786225E-003
   6.0005605324836191E-003
   6.0005206981215359E-003
   6.0004765825730109E-003
   6.0005598723131253E-003
   6.0002822414446013E-003
   6.0000070776670454E-003
   6.0000053449772205E-003
   6.0000033068489389E-003
   6.0000031007003797E-003
   6.0000025079057877E-003
   6.0000012839639995E-003
   6.0000006029303126E-003
   5.9999604178882070E-003
   5.9998965789452314E-003
   5.9998524927803408E-003
   1.8000036166890779E-002
   1.8000513352574164E-002
   1.8000529104105715E-002
   1.8000427457199708E-002
   1.8000394207237320E-002
   1.8000222924432270E-002
   1.8000248246116748E-002
   1.8000219363849015E-002
   1.8000067921894451E-002
   1.8000142269093636E-002
   1.8000073703037137E-002
   1.8000029669683879E-002
   1.8000011294839878E-002
   1.7999892655897180E-002
   1.7999863123803521E-002
   1.8000593183743155E-002
   1.8000542246445966E-002
   1.8000532364267182E-002
   1.8000503417033856E-002
   1.8000493225597249E-002
   1.8000397227625833E-002
   1.8000404432489233E-002
   1.8000253067651989E-002
   1.8000219300980051E-002
   1.8000219026041701E-002
   1.8000104168834581E-002
   1.8000137796630122E-002
   1.8000042536837301E-002
   1.8000011651033297E-002
   1.7999900196916128E-002
   1.7999860535225523E-002
   1.8000564995894613E-002
   1.8000611657299458E-002
   1.8000621019061965E-002
   1.8000563251466997E-002
   1.8000423593147085E-002
   1.8000364263777817E-002
   1.8000182209704653E-002
   1.8000250558785180E-002
   1.8000079621660430E-002
   1.8000133844700068E-002
   1.8000126835957374E-002
   1.8000037569615112E-002
   1.8000065793488441E-002
   1.7999965155115830E-002
   1.7999890433668463E-002
   1.7999855367000564E-002
   1.8000549818654361E-002
   1.8000559942357434E-002
   1.8000522271823974E-002
   1.8000479724565324E-002
   1.8000553557154974E-002
   1.8000285132171372E-002
   1.8000017541261567E-002
   1.8000013241312549E-002
   1.8000008263617237E-002
   1.8000007689026550E-002
   1.8000006198168692E-002
   1.8000003196055440E-002
   1.8000001467142562E-002
   1.7999960415951467E-002
   1.7999896574675298E-002
   1.7999852489295465E-002
   3.6000066971364861E-002
   3.6000510469926549E-002
   3.6000525932757883E-002
   3.6000429005045735E-002
   3.6000392186061755E-002
   3.6000230016118351E-002
   3.6000247558355944E-002
   3.6000217044302757E-002
   3.6000074607446218E-002
   3.6000138908834349E-002
   3.6000074011880781E-002
   3.6000029151159102E-002
   3.6000008005399674E-002
   3.5999892587866164E-002
   3.5999863099756918E-002
   3.6000592451778397E-002
   3.6000542499045218E-002
   3.6000533806899576E-002
   3.6000504268029837E-002
   3.6000489761139974E-002
   3.6000396814242545E-002
   3.6000396251285621E-002
   3.6000253458297576E-002
   3.6000217396006853E-002
   3.6000213538483636E-002
   3.6000105845486845E-002
   3.6000132782779644E-002
   3.6000042135266100E-002
   3.6000008688877601E-002
   3.5999900130817754E-002
   3.5999860512642749E-002
   3.6000565146625127E-002
   3.6000608700349254E-002
   3.6000616988315498E-002
   3.6000559447651494E-002
   3.6000426199853122E-002
   3.6000362694626802E-002
   3.6000188147476658E-002
   3.6000245372849446E-002
   3.6000085046408718E-002
   3.6000132576731653E-002
   3.6000123573619321E-002
   3.6000039387397077E-002
   3.6000061756250007E-002
   3.5999965039940400E-002
   3.5999890409772216E-002
   3.5999855351560278E-002
   3.6000549575240084E-002
   3.6000559070726204E-002
   3.6000524446537847E-002
   3.6000484049770888E-002
   3.6000544736032328E-002
   3.6000289272882721E-002
   3.6000032554262949E-002
   3.6000024550609543E-002
   3.6000015516225448E-002
   3.6000014276772213E-002
   3.6000011451364333E-002
   3.6000005964990159E-002
   3.6000002646590548E-002
   3.5999960405565502E-002
   3.5999896560531451E-002
   3.5999852477485016E-002
   6.0000105272397804E-002
   6.0000507356220548E-002
   6.0000522051096850E-002
   6.0000430752140413E-002
   6.0000389756916114E-002
   6.0000238500049090E-002
   6.0000246753519844E-002
   6.0000214208588129E-002
   6.0000082608011943E-002
   6.0000134853499539E-002
   6.0000074191895361E-002
   6.0000028405642281E-002
   6.0000003841462070E-002
   5.9999892428696383E-002
   5.9999863038615826E-002
   6.0000591573517170E-002
   6.0000543078198257E-002
   6.0000535542589023E-002
   6.0000505195618691E-002
   6.0000485528764087E-002
   6.0000396133095615E-002
   6.0000386362568291E-002
   6.0000253770341544E-002
   6.0000215036775002E-002
   6.0000206852423306E-002
   6.0000107685390082E-002
   6.0000126619629099E-002
   6.0000041449353905E-002
   6.0000004958310746E-002
   5.9999899982230057E-002
   5.9999860459266363E-002
   6.0000565234742217E-002
   6.0000605018679147E-002
   6.0000611991772798E-002
   6.0000554791761841E-002
   6.0000429189604743E-002
   6.0000360927328064E-002
   6.0000195513193598E-002
   6.0000239347561019E-002
   6.0000091755533107E-002
   6.0000131097165711E-002
   6.0000119658986183E-002
   6.0000041497216702E-002
   6.0000056793912508E-002
   5.9999964785035165E-002
   5.9999890353343008E-002
   5.9999855315776833E-002
   6.0000549225651817E-002
   6.0000557932662645E-002
   6.0000527026833443E-002
   6.0000489164003315E-002
   6.0000534076501300E-002
   6.0000294456836245E-002
   6.0000051375243058E-002
   6.0000038697895205E-002
   6.0000024845782408E-002
   6.0000022543018519E-002
   6.0000017965615271E-002
   6.0000009473887568E-002
   6.0000004019366511E-002
   5.9999960374920863E-002
   5.9999896526865146E-002
   5.9999852450252612E-002
   9.0000149015199246E-002
   9.0000504492680156E-002
   9.0000517709158567E-002
   9.0000432494313443E-002
   9.0000387093294013E-002
   9.0000247719368612E-002
   9.0000245899389791E-002
   9.0000211037961061E-002
   9.0000091300212942E-002
   9.0000130382930768E-002
   9.0000074100974575E-002
   9.0000027393252885E-002
   8.9999998970261785E-002
   8.9999892130088535E-002
   8.9999862916315038E-002
   9.0000590623109417E-002
   9.0000544132813498E-002
   9.0000537454243121E-002
   9.0000506070110398E-002
   9.0000480789126105E-002
   9.0000395123318117E-002
   9.0000375461936871E-002
   9.0000253890659188E-002
   9.0000212355801884E-002
   9.0000199402574074E-002
   9.0000109440624532E-002
   9.0000119663518952E-002
   9.0000040391663025E-002
   9.0000000615649181E-002
   8.9999899710396000E-002
   8.9999860355691394E-002
   9.0000565192664903E-002
   9.0000600805940106E-002
   9.0000606301495645E-002
   9.0000549566852120E-002
   9.0000432253738355E-002
   9.0000359169376876E-002
   9.0000203926164021E-002
   9.0000233074667133E-002
   9.0000099388747465E-002
   9.0000129553590352E-002
   9.0000115385324889E-002
   9.0000043694802911E-002
   9.0000051194455324E-002
   8.9999964328667262E-002
   8.9999890244459715E-002
   8.9999855246923166E-002
   9.0000548753854201E-002
   9.0000556548667371E-002
   9.0000529792611056E-002
   9.0000494637609452E-002
   9.0000522317594561E-002
   9.0000300447474452E-002
   9.0000073123070318E-002
   9.0000055015494143E-002
   9.0000035965196651E-002
   9.0000032109835371E-002
   9.0000025392413419E-002
   9.0000013572071172E-002
   9.0000005451409348E-002
   8.9999960305829088E-002
   8.9999896460880399E-002
   8.9999852398023342E-002
  0.12000018847080468     
  0.12000050262396070     
  0.12000051388333824     
  0.12000043382339790     
  0.12000038478823352     
  0.12000025560175658     
  0.12000024518468808     
  0.12000020824140686     
  0.12000009872035848     
  0.12000012648446141     
  0.12000007372553817     
  0.12000002629930498     
  0.11999999444757775     
  0.11999989173148502     
  0.11999986274015982     
  0.12000058982707684     
  0.12000054550775856     
  0.12000053913062944     
  0.12000050668514611     
  0.12000047657644997     
  0.12000039399523436     
  0.12000036596657301     
  0.12000025378753240     
  0.12000020994434117     
  0.12000019283149167     
  0.12000011069944366     
  0.12000011342802729     
  0.12000003916070637     
  0.11999999659064454     
  0.11999989935624310     
  0.11999986021190003     
  0.12000056501779921     
  0.12000059698697958     
  0.12000060116353108     
  0.12000054491434957     
  0.12000043469868349     
  0.12000035782819141     
  0.12000021156765195     
  0.12000022799304989     
  0.12000010629273518     
  0.12000012830797163     
  0.12000011170308672     
  0.12000004548126827     
  0.12000004617722393     
  0.11999996374921612     
  0.11999989009442777     
  0.11999985515195151     
  0.12000054825432568     
  0.12000055520440234     
  0.12000053211575089     
  0.12000049925552114     
  0.12000051202750839     
  0.12000030595694505     
  0.12000009309800085     
  0.12000006997644211     
  0.12000004649523807     
  0.12000004090739616     
  0.12000003211165436     
  0.12000001736208062     
  0.12000000660943709     
  0.11999996019711869     
  0.11999989636846654     
  0.11999985232651997     
  0.18000025709285988     
  0.18000050103178808     
  0.18000050749788543     
  0.18000043549431610     
  0.18000038098262383     
  0.18000026807648165     
  0.18000024405813253     
  0.18000020354231264     
  0.18000011044380915     
  0.18000012003563848     
  0.18000007230000084     
  0.18000002391817638     
  0.17999998627030864     
  0.17999989071185030     
  0.17999986226812895     
  0.18000058860645185     
  0.18000054872553914     
  0.18000054190427586     
  0.18000050728234501     
  0.18000046951483847     
  0.18000039152297503     
  0.18000035062710462     
  0.18000025309779585     
  0.18000020585356938     
  0.18000018198788623     
  0.18000011200223426     
  0.18000010283435802     
  0.18000003630250089     
  0.17999998939182180     
  0.17999989843713851     
  0.17999985981122152     
  0.18000056434228776     
  0.18000059042243630     
  0.18000059237083885     
  0.18000053709818328     
  0.18000043805802962     
  0.18000035618179697     
  0.18000022482259320     
  0.18000022086652023     
  0.18000011819194198     
  0.18000012659790382     
  0.18000010586191462     
  0.18000004801829414     
  0.18000003766063902     
  0.17999996229615997     
  0.17999988967644251     
  0.17999985488246875     
  0.18000054714628319     
  0.18000055267582435     
  0.18000053559586285     
  0.18000050620351185     
  0.18000049550977085     
  0.18000031570290048     
  0.18000012797799458     
  0.18000009625551380     
  0.18000006581507361     
  0.18000005641921007     
  0.18000004366838304     
  0.18000002405271681     
  0.18000000826461857     
  0.17999995987778783     
  0.17999989610768807     
  0.17999985211969322     
  0.24000031321056423     
  0.24000050168208126     
  0.24000050256059643     
  0.24000043624556286     
  0.24000037802632290     
  0.24000027720573666     
  0.24000024322074476     
  0.24000019984584048     
  0.24000011893996323     
  0.24000011495562276     
  0.24000007031634671     
  0.24000002133772336     
  0.23999997914894500     
  0.23999988943929929     
  0.23999986160946699     
  0.24000058783536540     
  0.24000055250492855     
  0.24000054416009428     
  0.24000050733638773     
  0.24000046381933415     
  0.24000038902121826     
  0.24000033894749001     
  0.24000025212224671     
  0.24000020256575130     
  0.24000017348023675     
  0.24000011224596562     
  0.24000009413975926     
  0.24000003316455309     
  0.23999998310631498     
  0.23999989731384941     
  0.23999985926966913     
  0.24000056343788670     
  0.24000058503736629     
  0.24000058516640591     
  0.24000053078648489     
  0.24000044004593235     
  0.24000035547792567     
  0.24000023598194081     
  0.24000021664783808     
  0.24000012813948868     
  0.24000012567642137     
  0.24000010151827997     
  0.24000004958335325     
  0.24000003067905468     
  0.23999996060424289     
  0.23999988911901787     
  0.23999985451573069     
  0.24000054599250217     
  0.24000055032172579     
  0.24000053793015880     
  0.24000051105649600     
  0.24000048276987243     
  0.24000032408511243     
  0.24000015751042519     
  0.24000011861527973     
  0.24000008301138934     
  0.24000006964617915     
  0.24000005322073709     
  0.24000002968610004     
  0.24000000923066817     
  0.23999995939834948     
  0.23999989574726835     
  0.23999985183920525     
  0.39000041534579472     
  0.39000050828062083     
  0.39000049460906322     
  0.39000043557721142     
  0.39000037291563860     
  0.39000029000530650     
  0.39000024187774440     
  0.39000019365367761     
  0.39000013051960580     
  0.39000010615743813     
  0.39000006395474834     
  0.39000001439495829     
  0.38999996477816912     
  0.38999988562918481     
  0.38999985946987059     
  0.39000058723559400     
  0.39000056178570458     
  0.39000054827401620     
  0.39000050603418740     
  0.39000045410362233     
  0.39000038333261966     
  0.39000032175781429     
  0.39000024944863515     
  0.39000019723426421     
  0.39000016000168530     
  0.39000010996092505     
  0.39000007872945625     
  0.39000002485106738     
  0.38999997062824099     
  0.38999989387482309     
  0.38999985739103360     
  0.39000056061492822     
  0.39000057579896708     
  0.39000057273617328     
  0.39000052001829461     
  0.39000044111998539     
  0.39000035646578168     
  0.39000025670942612     
  0.39000021508273824     
  0.39000014642420500     
  0.39000012594028094     
  0.39000009545850917     
  0.39000005054389553     
  0.39000001832592718     
  0.38999995580403818     
  0.38999988719812539     
  0.38999985318434088     
  0.39000054285676600     
  0.39000054536118750     
  0.39000054002682738     
  0.39000051631965738     
  0.39000046432696311     
  0.39000034028811154     
  0.39000021089617093     
  0.39000016056068060     
  0.39000011734985890     
  0.39000009450918888     
  0.39000007016307414     
  0.39000003967568264     
  0.39000000969338716     
  0.38999995767776868     
  0.38999989445479116     
  0.38999985078671756     
  0.54000047931543083     
  0.54000051727491127     
  0.54000049063343780     
  0.54000043385076335     
  0.54000036970230036     
  0.54000029590892829     
  0.54000024113066103     
  0.54000019010888400     
  0.54000013525292390     
  0.54000010023022649     
  0.54000005754584313     
  0.54000000752515487     
  0.53999995396228251     
  0.53999988141577904     
  0.53999985667838535     
  0.54000058781532856     
  0.54000057039058302     
  0.54000055149627058     
  0.54000050439883451     
  0.54000044794444579     
  0.54000037919689292     
  0.54000031327131637     
  0.54000024776577737     
  0.54000019447458647     
  0.54000015241976507     
  0.54000010665559894     
  0.54000006824876101     
  0.54000001712189649     
  0.53999996106359505     
  0.53999989010450511     
  0.53999985498681591     
  0.54000055816120585     
  0.54000057025335957     
  0.54000056504531568     
  0.54000051319778608     
  0.54000044042990802     
  0.54000035882577857     
  0.54000027144907436     
  0.54000021873954440     
  0.54000015939197055     
  0.54000012784219675     
  0.54000009264403803     
  0.54000004977820160     
  0.54000000986477403     
  0.53999995102359777     
  0.53999988480986283     
  0.53999985141769613     
  0.54000054010012444     
  0.54000054147732801     
  0.54000053983936991     
  0.54000051761276602     
  0.54000045459545931     
  0.54000035211092612     
  0.54000024697041182     
  0.54000019010089062     
  0.54000014267160579     
  0.54000011190002584     
  0.54000008115493225     
  0.54000004571357629     
  0.54000000863523090     
  0.53999995535320267     
  0.53999989270861715     
  0.53999984936534740     
  0.84000054520220746     
  0.84000053293815913     
  0.84000048833272156     
  0.84000043040505423     
  0.84000036631331787     
  0.84000029962684819     
  0.84000024100191251     
  0.84000018743203830     
  0.84000013653951078     
  0.84000009259494401     
  0.84000004655909866     
  0.83999999530342451     
  0.83999993890189217     
  0.83999987307290869     
  0.83999985040697023     
  0.84000059032316443     
  0.84000058224014951     
  0.84000055651211736     
  0.84000050207041410     
  0.84000044185442768     
  0.84000037530219651     
  0.84000030923975000     
  0.84000024780575411     
  0.84000019364739997     
  0.84000014660341038     
  0.84000010065139241     
  0.84000005567366698     
  0.84000000462060254     
  0.83999994766062169     
  0.83999988251220670     
  0.83999984932806215     
  0.84000055499163606     
  0.84000056571564374     
  0.84000055809508167     
  0.84000050638890456     
  0.84000043850686257     
  0.84000036434214320     
  0.84000028981042996     
  0.84000023066573537     
  0.84000017578926245     
  0.84000013322454514     
  0.84000009132929598     
  0.84000004648499327     
  0.83999999935045544     
  0.83999994249847032     