# vtk DataFile Version 2.0
3D Unstructured Grid of Linear Triangles
ASCII
DATASET UNSTRUCTURED_GRID
FIELD FieldData  1
TIME 1 1 double
       45005.01532
POINTS     1008 float
      5.00000000E-01  1.00000000E+01  1.00000000E+00
      1.00000000E+00  1.00000000E+01  1.00000004E+00
      1.50000000E+00  1.00000000E+01  1.00000011E+00
      2.00000000E+00  1.00000000E+01  1.00000017E+00
      2.50000000E+00  1.00000000E+01  1.00000024E+00
      3.00000000E+00  1.00000000E+01  1.00000030E+00
      3.50000000E+00  1.00000000E+01  1.00000037E+00
      4.00000000E+00  1.00000000E+01  1.00000043E+00
      4.50000000E+00  1.00000000E+01  1.00000050E+00
      5.00000000E+00  1.00000000E+01  1.00000056E+00
      5.50000000E+00  1.00000000E+01  1.00000063E+00
      6.00000000E+00  1.00000000E+01  1.00000069E+00
      6.50000000E+00  1.00000000E+01  1.00000076E+00
      7.00000000E+00  1.00000000E+01  1.00000082E+00
      7.50000000E+00  1.00000000E+01  1.00000084E+00
      0.00000000E+00  9.50000000E+00  1.00000000E+00
      5.00000000E-01  9.50000000E+00  1.00000000E+00
      1.00000000E+00  9.50000000E+00  1.00000003E+00
      1.50000000E+00  9.50000000E+00  1.00000010E+00
      2.00000000E+00  9.50000000E+00  1.00000016E+00
      2.50000000E+00  9.50000000E+00  1.00000023E+00
      3.00000000E+00  9.50000000E+00  1.00000029E+00
      3.50000000E+00  9.50000000E+00  1.00000036E+00
      4.00000000E+00  9.50000000E+00  1.00000042E+00
      4.50000000E+00  9.50000000E+00  1.00000049E+00
      5.00000000E+00  9.50000000E+00  1.00000055E+00
      5.50000000E+00  9.50000000E+00  1.00000062E+00
      6.00000000E+00  9.50000000E+00  1.00000068E+00
      6.50000000E+00  9.50000000E+00  1.00000075E+00
      7.00000000E+00  9.50000000E+00  1.00000081E+00
      7.50000000E+00  9.50000000E+00  1.00000084E+00
      0.00000000E+00  9.00000000E+00  1.00000004E+00
      5.00000000E-01  9.00000000E+00  1.00000003E+00
      1.00000000E+00  9.00000000E+00  1.00000004E+00
      1.50000000E+00  9.00000000E+00  1.00000010E+00
      2.00000000E+00  9.00000000E+00  1.00000016E+00
      2.50000000E+00  9.00000000E+00  1.00000023E+00
      3.00000000E+00  9.00000000E+00  1.00000029E+00
      3.50000000E+00  9.00000000E+00  1.00000036E+00
      4.00000000E+00  9.00000000E+00  1.00000042E+00
      4.50000000E+00  9.00000000E+00  1.00000049E+00
      5.00000000E+00  9.00000000E+00  1.00000055E+00
      5.50000000E+00  9.00000000E+00  1.00000062E+00
      6.00000000E+00  9.00000000E+00  1.00000068E+00
      6.50000000E+00  9.00000000E+00  1.00000075E+00
      7.00000000E+00  9.00000000E+00  1.00000081E+00
      7.50000000E+00  9.00000000E+00  1.00000084E+00
      0.00000000E+00  8.50000000E+00  1.00000007E+00
      5.00000000E-01  8.50000000E+00  1.00000007E+00
      1.00000000E+00  8.50000000E+00  1.00000007E+00
      1.50000000E+00  8.50000000E+00  1.00000009E+00
      2.00000000E+00  8.50000000E+00  1.00000015E+00
      2.50000000E+00  8.50000000E+00  1.00000022E+00
      3.00000000E+00  8.50000000E+00  1.00000028E+00
      3.50000000E+00  8.50000000E+00  1.00000035E+00
      4.00000000E+00  8.50000000E+00  1.00000041E+00
      4.50000000E+00  8.50000000E+00  1.00000048E+00
      5.00000000E+00  8.50000000E+00  1.00000054E+00
      5.50000000E+00  8.50000000E+00  1.00000061E+00
      6.00000000E+00  8.50000000E+00  1.00000067E+00
      6.50000000E+00  8.50000000E+00  1.00000074E+00
      7.00000000E+00  8.50000000E+00  1.00000080E+00
      7.50000000E+00  8.50000000E+00  1.00000084E+00
      5.00000000E-01  1.00000000E+01  9.94000000E-01
      1.00000000E+00  1.00000000E+01  9.94000043E-01
      1.50000000E+00  1.00000000E+01  9.94000108E-01
      2.00000000E+00  1.00000000E+01  9.94000173E-01
      2.50000000E+00  1.00000000E+01  9.94000238E-01
      3.00000000E+00  1.00000000E+01  9.94000303E-01
      3.50000000E+00  1.00000000E+01  9.94000368E-01
      4.00000000E+00  1.00000000E+01  9.94000433E-01
      4.50000000E+00  1.00000000E+01  9.94000498E-01
      5.00000000E+00  1.00000000E+01  9.94000563E-01
      5.50000000E+00  1.00000000E+01  9.94000628E-01
      6.00000000E+00  1.00000000E+01  9.94000693E-01
      6.50000000E+00  1.00000000E+01  9.94000758E-01
      7.00000000E+00  1.00000000E+01  9.94000823E-01
      7.50000000E+00  1.00000000E+01  9.94000845E-01
      0.00000000E+00  9.50000000E+00  9.94000000E-01
      5.00000000E-01  9.50000000E+00  9.94000000E-01
      1.00000000E+00  9.50000000E+00  9.94000033E-01
      1.50000000E+00  9.50000000E+00  9.94000098E-01
      2.00000000E+00  9.50000000E+00  9.94000163E-01
      2.50000000E+00  9.50000000E+00  9.94000227E-01
      3.00000000E+00  9.50000000E+00  9.94000292E-01
      3.50000000E+00  9.50000000E+00  9.94000358E-01
      4.00000000E+00  9.50000000E+00  9.94000423E-01
      4.50000000E+00  9.50000000E+00  9.94000488E-01
      5.00000000E+00  9.50000000E+00  9.94000553E-01
      5.50000000E+00  9.50000000E+00  9.94000618E-01
      6.00000000E+00  9.50000000E+00  9.94000683E-01
      6.50000000E+00  9.50000000E+00  9.94000747E-01
      7.00000000E+00  9.50000000E+00  9.94000812E-01
      7.50000000E+00  9.50000000E+00  9.94000845E-01
      0.00000000E+00  9.00000000E+00  9.94000043E-01
      5.00000000E-01  9.00000000E+00  9.94000033E-01
      1.00000000E+00  9.00000000E+00  9.94000043E-01
      1.50000000E+00  9.00000000E+00  9.94000098E-01
      2.00000000E+00  9.00000000E+00  9.94000163E-01
      2.50000000E+00  9.00000000E+00  9.94000227E-01
      3.00000000E+00  9.00000000E+00  9.94000292E-01
      3.50000000E+00  9.00000000E+00  9.94000358E-01
      4.00000000E+00  9.00000000E+00  9.94000423E-01
      4.50000000E+00  9.00000000E+00  9.94000488E-01
      5.00000000E+00  9.00000000E+00  9.94000553E-01
      5.50000000E+00  9.00000000E+00  9.94000618E-01
      6.00000000E+00  9.00000000E+00  9.94000683E-01
      6.50000000E+00  9.00000000E+00  9.94000747E-01
      7.00000000E+00  9.00000000E+00  9.94000812E-01
      7.50000000E+00  9.00000000E+00  9.94000845E-01
      0.00000000E+00  8.50000000E+00  9.94000065E-01
      5.00000000E-01  8.50000000E+00  9.94000065E-01
      1.00000000E+00  8.50000000E+00  9.94000065E-01
      1.50000000E+00  8.50000000E+00  9.94000087E-01
      2.00000000E+00  8.50000000E+00  9.94000152E-01
      2.50000000E+00  8.50000000E+00  9.94000217E-01
      3.00000000E+00  8.50000000E+00  9.94000282E-01
      3.50000000E+00  8.50000000E+00  9.94000347E-01
      4.00000000E+00  8.50000000E+00  9.94000412E-01
      4.50000000E+00  8.50000000E+00  9.94000477E-01
      5.00000000E+00  8.50000000E+00  9.94000542E-01
      5.50000000E+00  8.50000000E+00  9.94000607E-01
      6.00000000E+00  8.50000000E+00  9.94000672E-01
      6.50000000E+00  8.50000000E+00  9.94000737E-01
      7.00000000E+00  8.50000000E+00  9.94000802E-01
      7.50000000E+00  8.50000000E+00  9.94000845E-01
      5.00000000E-01  1.00000000E+01  9.82000000E-01
      1.00000000E+00  1.00000000E+01  9.82000043E-01
      1.50000000E+00  1.00000000E+01  9.82000108E-01
      2.00000000E+00  1.00000000E+01  9.82000173E-01
      2.50000000E+00  1.00000000E+01  9.82000238E-01
      3.00000000E+00  1.00000000E+01  9.82000303E-01
      3.50000000E+00  1.00000000E+01  9.82000368E-01
      4.00000000E+00  1.00000000E+01  9.82000433E-01
      4.50000000E+00  1.00000000E+01  9.82000498E-01
      5.00000000E+00  1.00000000E+01  9.82000563E-01
      5.50000000E+00  1.00000000E+01  9.82000628E-01
      6.00000000E+00  1.00000000E+01  9.82000693E-01
      6.50000000E+00  1.00000000E+01  9.82000758E-01
      7.00000000E+00  1.00000000E+01  9.82000823E-01
      7.50000000E+00  1.00000000E+01  9.82000845E-01
      0.00000000E+00  9.50000000E+00  9.82000000E-01
      5.00000000E-01  9.50000000E+00  9.82000000E-01
      1.00000000E+00  9.50000000E+00  9.82000033E-01
      1.50000000E+00  9.50000000E+00  9.82000098E-01
      2.00000000E+00  9.50000000E+00  9.82000163E-01
      2.50000000E+00  9.50000000E+00  9.82000227E-01
      3.00000000E+00  9.50000000E+00  9.82000292E-01
      3.50000000E+00  9.50000000E+00  9.82000358E-01
      4.00000000E+00  9.50000000E+00  9.82000423E-01
      4.50000000E+00  9.50000000E+00  9.82000488E-01
      5.00000000E+00  9.50000000E+00  9.82000553E-01
      5.50000000E+00  9.50000000E+00  9.82000618E-01
      6.00000000E+00  9.50000000E+00  9.82000683E-01
      6.50000000E+00  9.50000000E+00  9.82000747E-01
      7.00000000E+00  9.50000000E+00  9.82000812E-01
      7.50000000E+00  9.50000000E+00  9.82000845E-01
      0.00000000E+00  9.00000000E+00  9.82000043E-01
      5.00000000E-01  9.00000000E+00  9.82000033E-01
      1.00000000E+00  9.00000000E+00  9.82000043E-01
      1.50000000E+00  9.00000000E+00  9.82000098E-01
      2.00000000E+00  9.00000000E+00  9.82000163E-01
      2.50000000E+00  9.00000000E+00  9.82000227E-01
      3.00000000E+00  9.00000000E+00  9.82000292E-01
      3.50000000E+00  9.00000000E+00  9.82000358E-01
      4.00000000E+00  9.00000000E+00  9.82000423E-01
      4.50000000E+00  9.00000000E+00  9.82000488E-01
      5.00000000E+00  9.00000000E+00  9.82000553E-01
      5.50000000E+00  9.00000000E+00  9.82000618E-01
      6.00000000E+00  9.00000000E+00  9.82000683E-01
      6.50000000E+00  9.00000000E+00  9.82000747E-01
      7.00000000E+00  9.00000000E+00  9.82000812E-01
      7.50000000E+00  9.00000000E+00  9.82000845E-01
      0.00000000E+00  8.50000000E+00  9.82000065E-01
      5.00000000E-01  8.50000000E+00  9.82000065E-01
      1.00000000E+00  8.50000000E+00  9.82000065E-01
      1.50000000E+00  8.50000000E+00  9.82000087E-01
      2.00000000E+00  8.50000000E+00  9.82000152E-01
      2.50000000E+00  8.50000000E+00  9.82000217E-01
      3.00000000E+00  8.50000000E+00  9.82000282E-01
      3.50000000E+00  8.50000000E+00  9.82000347E-01
      4.00000000E+00  8.50000000E+00  9.82000412E-01
      4.50000000E+00  8.50000000E+00  9.82000477E-01
      5.00000000E+00  8.50000000E+00  9.82000542E-01
      5.50000000E+00  8.50000000E+00  9.82000607E-01
[...]
POINT_DATA     1008
SCALARS pressure float
LOOKUP_TABLE default
   3.0406370753043328E-009
   4.5230752935095951E-007
   4.4413207767884800E-007
   3.3854280793527962E-007
   3.1716720187135866E-007
   1.7064928820650866E-007
   1.7817250045560751E-007
   1.4571721676824575E-007
   3.7380492003673766E-008
   5.5341252674976548E-008
   2.7525918574036483E-008
  -5.0489751997857858E-008
  -1.3043380249427153E-007
  -2.0253880335787413E-007
  -2.2596230810486763E-007
   5.1754651259011184E-007
   4.6234159649742615E-007
   4.5521735475973504E-007
   4.1352637272924899E-007
   4.1799377779072229E-007
   3.1270574495066056E-007
   3.1628812346886530E-007
   1.8649954811489159E-007
   1.5019408145179234E-007
   1.2940098617553801E-007
   4.8253389174687784E-008
   2.8644955777998351E-008
   1.7770537752225585E-010
  -1.1575069942721469E-007
  -1.9119820095021016E-007
  -2.2609494732233977E-007
   4.8401197891057776E-007
   5.1734290805565092E-007
   5.3623421771595775E-007
   4.7200467446651457E-007
   3.3740070295076203E-007
   3.1206936093860999E-007
   1.1909167729267652E-007
   1.9679468638429123E-007
   4.7885060880752668E-008
   8.2466724620709077E-008
   6.8366397232407486E-008
   5.5817554468120194E-010
   6.5237109404591966E-010
  -1.1671239461206341E-007
  -1.9167136577547560E-007
  -2.2648952932402912E-007
   4.6714876837576290E-007
   4.6761686117692379E-007
   4.3385597283573093E-007
   4.1497993144005616E-007
   4.5592694668398654E-007
   2.2462556613462739E-007
   1.3185729034255001E-009
   9.7767618866616140E-010
   5.5264262066299938E-010
   4.5766966314104675E-010
   2.8975622362200383E-010
  -2.4319469856960933E-009
  -3.9226864287610018E-008
  -1.1165416945906645E-007
  -1.8191607101037000E-007
  -2.2712059609285236E-007
   6.0000126766905750E-003
   6.0004511000981984E-003
   6.0004432586205766E-003
   6.0003394299253335E-003
   6.0003165909966044E-003
   6.0001725984827137E-003
   6.0001781066100629E-003
   6.0001452658622742E-003
   6.0000386911329574E-003
   6.0000549388037469E-003
   6.0000268643581444E-003
   5.9999495045259124E-003
   5.9998695653565139E-003
   5.9997974608016367E-003
   5.9997740373578636E-003
   6.0005172870182264E-003
   6.0004625680508449E-003
   6.0004557585709665E-003
   6.0004141422378247E-003
   6.0004167378887368E-003
   6.0003129411000207E-003
   6.0003140807887425E-003
   6.0001867136589022E-003
   6.0001497563879477E-003
   6.0001283852873467E-003
   6.0000484851404365E-003
   6.0000282748200523E-003
   5.9999991141125716E-003
   5.9998842467323590E-003
   5.9998088011895415E-003
   5.9997739046012358E-003
   6.0004840819244372E-003
   6.0005167125468462E-003
   6.0005349792585172E-003
   6.0004710592355386E-003
   6.0003386007810569E-003
   6.0003111274997403E-003
   6.0001212901179954E-003
   6.0001951316248766E-003
   6.0000493208044580E-003
   6.0000820992825886E-003
   6.0000675591032598E-003
   6.0000006950131305E-003
   5.9999994669072756E-003
   5.9998832848835231E-003
   5.9998083281127936E-003
   5.9997735099844105E-003
   6.0004670839149520E-003
   6.0004675771023960E-003
   6.0004348523956261E-003
   6.0004160414778365E-003
   6.0004535687123023E-003
   6.0002260616504686E-003
   6.0000054872099608E-003
   6.0000040684107950E-003
   6.0000023081459679E-003
   6.0000019052306626E-003
   6.0000012038393573E-003
   5.9999975691953844E-003
   5.9999607693136192E-003
   5.9998883448401904E-003
   5.9998180834376020E-003
   5.9997728789215844E-003
   1.8000031411288864E-002
   1.8000448724053542E-002
   1.8000441419329931E-002
   1.8000340959718822E-002
   1.8000315352102753E-002
   1.8000176241770964E-002
   1.8000177867617762E-002
   1.8000144256666264E-002
   1.8000041152411172E-002
   1.8000054011776994E-002
   1.8000025490954176E-002
   1.7999949460755404E-002
   1.7999869557192398E-002
   1.7999797457641149E-002
   1.7999774034968868E-002
   1.8000516649939069E-002
   1.8000462911926491E-002
   1.8000456657818156E-002
   1.8000415150718936E-002
   1.8000414185005933E-002
   1.8000313204995528E-002
   1.8000309688635464E-002
   1.8000186972388754E-002
   1.8000148790789306E-002
   1.8000126257545535E-002
   1.8000048810151142E-002
   1.8000027326126031E-002
   1.7999996970579926E-002
   1.7999884226561010E-002
   1.7999808796931260E-002
   1.7999773901831145E-002
   1.8000484052494790E-002
   1.8000515314678216E-002
   1.8000532390203702E-002
   1.8000469072475888E-002
   1.8000340726225503E-002
   1.8000309247910459E-002
   1.8000125446592491E-002
   1.8000191882732063E-002
   1.8000052045386506E-002
   1.8000081313879691E-002
   1.8000065892972046E-002
   1.8000000862197069E-002
   1.7999997027248624E-002
   1.7999883263694085E-002
   1.7999808323955709E-002
   1.7999773507018049E-002
   1.8000466801896872E-002
   1.8000467327941524E-002
   1.8000436603762712E-002
   1.8000417941019035E-002
   1.8000448875726899E-002
   1.8000228746740305E-002
   1.8000013609167025E-002
   1.8000010075079148E-002
   1.8000005768180387E-002
   1.8000004721246635E-002
   1.8000002965732800E-002
   1.7999997575665942E-002
   1.7999960735769364E-002
   1.7999888336782476E-002
   1.7999818079765320E-002
   1.7999772876573363E-002
   3.6000058164260419E-002
   3.6000445572421658E-002
   3.6000438834455487E-002
   3.6000343044209272E-002
   3.6000313636144074E-002
   3.6000181299958051E-002
   3.6000177548445554E-002
   3.6000142826385605E-002
   3.6000044567152119E-002
   3.6000052697394078E-002
   3.6000023498281387E-002
   3.5999949319736518E-002
   3.5999869528776103E-002
   3.5999797446451973E-002
   3.5999774026695103E-002
   3.6000515759355423E-002
   3.6000463533280007E-002
   3.6000457913041968E-002
   3.6000416521355501E-002
   3.6000410610466743E-002
   3.6000313485815526E-002
   3.6000303560574896E-002
   3.6000187261998780E-002
   3.6000147423210192E-002
   3.6000123254110478E-002
   3.6000049201526343E-002
   3.6000025931489460E-002
   3.5999993883872587E-002
   3.5999884161261174E-002
   3.5999808782850272E-002
   3.5999773892798043E-002
   3.6000483970588359E-002
   3.6000513318209686E-002
   3.6000528720172190E-002
   3.6000466276011528E-002
   3.6000343625338327E-002
   3.6000306687413546E-002
   3.6000131344563757E-002
   3.6000187445561459E-002
   3.6000055906859826E-002
   3.6000080229966328E-002
   3.6000063545486544E-002
   3.6000001033463402E-002
   3.5999993537446554E-002
   3.5999883195173693E-002
   3.5999808310161606E-002
   3.5999773498031830E-002
   3.6000466390391589E-002
   3.6000466956752547E-002
   3.6000439031856173E-002
   3.6000420549455424E-002
   3.6000442335688748E-002
   3.6000232571248805E-002
   3.6000025283371200E-002
   3.6000018669886405E-002
   3.6000010831179312E-002
   3.6000008757343910E-002
   3.6000005453475072E-002
   3.5999997591014209E-002
   3.5999960624802624E-002
   3.5999888309687790E-002
   3.5999818068222708E-002
   3.5999772868419593E-002
   6.0000091426887288E-002
   6.0000442079339224E-002
   6.0000435692563844E-002
   6.0000345467326334E-002
   6.0000311590169463E-002
   6.0000187348027048E-002
   6.0000177186879861E-002
   6.0000141066341793E-002
   6.0000048642210549E-002
   6.0000051074289969E-002
   6.0000020961591134E-002
   5.9999949006538884E-002
   5.9999869460825618E-002
   5.9999797419328559E-002
   5.9999774005994613E-002
   6.0000514689062458E-002
   6.0000464540157054E-002
   6.0000459431719520E-002
   6.0000418110203360E-002
   6.0000406277698662E-002
   6.0000313676012045E-002
   6.0000296176092149E-002
   6.0000187491372772E-002
   6.0000145740076935E-002
   6.0000119573512742E-002
   6.0000049563194477E-002
   6.0000024122934668E-002
   5.9999989993608858E-002
   5.9999884014578342E-002
   5.9999808749980323E-002
   5.9999773871666433E-002
   6.0000483801050317E-002
   6.0000510834516553E-002
   6.0000524198110979E-002
   6.0000462861253441E-002
   6.0000347005836320E-002
   6.0000303709963655E-002
   6.0000138630368925E-002
   6.0000182270068238E-002
   6.0000060669458989E-002
   6.0000078946585385E-002
   6.0000060675728606E-002
   6.0000001129482679E-002
   5.9999989179219067E-002
   5.9999883041913858E-002
   5.9999808277564445E-002
   5.9999773477172204E-002
   6.0000465861686218E-002
   6.0000466466115454E-002
   6.0000441929362248E-002
   6.0000423622737081E-002
   6.0000434458993578E-002
   6.0000237322916677E-002
   6.0000039953796519E-002
   6.0000029408114934E-002
   6.0000017344145291E-002
   6.0000013809448492E-002
   6.0000008502312574E-002
   5.9999997615387976E-002
   5.9999960375104133E-002
   5.9999888246065169E-002
   5.9999818041418712E-002
   5.9999772849635362E-002
   9.0000129415141003E-002
   9.0000438717091444E-002
   9.0000432210922840E-002
   9.0000347996570376E-002
   9.0000309371235099E-002
   9.0000193917202265E-002
   9.0000176819236097E-002
   9.0000139081997818E-002
   9.0000053050644763E-002
   9.0000049227021803E-002
   9.0000017970994897E-002
   8.9999948443371419E-002
   8.9999869328157456E-002
   8.9999797365493961E-002
   8.9999773965541194E-002
   9.0000513527644349E-002
   9.0000466038421614E-002
   9.0000461118280542E-002
   9.0000419763671138E-002
   9.0000401477392661E-002
   9.0000313674392304E-002
   9.0000288068875139E-002
   9.0000187576430121E-002
   9.0000143841369257E-002
   9.0000115441211503E-002
   9.0000049794794867E-002
   9.0000021940002325E-002
   8.9999985463883922E-002
   8.9999883746891107E-002
   8.9999808686580959E-002
   8.9999773830753443E-002
   9.0000483511356075E-002
   9.0000507997733625E-002
   9.0000519088456549E-002
   9.0000459041576261E-002
   9.0000350556074735E-002
   9.0000300600637170E-002
   9.0000146905773334E-002
   9.0000176849556135E-002
   9.0000066069366905E-002
   9.0000077575274881E-002
   9.0000057462474733E-002
   9.0000001067340824E-002
   8.9999984162376159E-002
   8.9999882763764208E-002
   8.9999808214659305E-002
   8.9999773436947261E-002
   9.0000465229599022E-002
   9.0000465860388776E-002
   9.0000445064815679E-002
   9.0000426896362104E-002
   9.0000425808420215E-002
   9.0000242762889662E-002
   9.0000056954451568E-002
   9.0000041775211079E-002
   9.0000025105795453E-002
   9.0000019638242987E-002
   9.0000011923829212E-002
   8.9999997641409049E-002
   8.9999959923290115E-002
   8.9999888123701272E-002
   8.9999817989666095E-002
   8.9999772813625353E-002
  0.12000016368141603     
  0.12000043633046897     
  0.12000042917661564     
  0.12000035005459608     
  0.12000030747597676     
  0.12000019953241284     
  0.12000017652645828     
  0.12000013731525189     
  0.12000005679195438     
  0.12000004755242441     
  0.12000001516760166     
  0.11999994772602690     
  0.11999986914398653     
  0.11999979728935947     
  0.11999977390782365     
  0.12000051255075932     
  0.12000046776634335     
  0.12000046261293811     
  0.12000042110888670     
  0.12000039726418250     
  0.12000031347238609     
  0.12000028103937439     
  0.12000018749548422     
  0.12000014214554966     
  0.12000011176483104     
  0.12000004982582915     
  0.12000001983846172     
  0.11999998126800056     
  0.11999988339972166     
  0.11999980859879705     
  0.11999977377377516     
  0.12000048315911287     
  0.12000050543392850     
  0.12000051451507712     
  0.12000045565339267     
  0.12000035348037219     
  0.12000029806495231     
  0.12000015437468164     
  0.12000017242229860     
  0.12000007093552728     
  0.12000007642906406     
  0.12000005461034773     
  0.12000000083923543     
  0.11999997957123081     
  0.11999988240520273     
  0.11999980812770811     
  0.11999977338114884     
  0.12000046462724877     
  0.12000046526240780     
  0.12000044773583146     
  0.12000042964305384     
  0.12000041827669169     
  0.12000024771837219     
  0.12000007261525814     
  0.12000005309711784     
  0.12000003245415977     
  0.12000002498001518     
  0.12000001496313370     
  0.11999999764916015     
  0.11999995934169286     
  0.11999988795596103     
  0.11999981791847297     
  0.11999977276434820     
  0.18000022328497883     
  0.18000043370166083     
  0.18000042420720033     
  0.18000035303415729     
  0.18000030441737133     
  0.18000020842089831     
  0.18000017609356009     
  0.18000013430807291     
  0.18000006263673296     
  0.18000004461045754     
  0.18000001003057284     
  0.17999994590786900     
  0.17999986863722917     
  0.17999979707749009     
  0.17999977374803863     
  0.18000051104111317     
  0.18000047150939857     
  0.18000046513316695     
  0.18000042303136593     
  0.18000039035094453     
  0.18000031262789679     
  0.18000026977161160     
  0.18000018697740702     
  0.18000013929648712     
  0.18000010561133115     
  0.18000004939866501     
  0.18000001586686151     
  0.17999997378014265     
  0.17999988250393734     
  0.17999980835291834     
  0.17999977361274294     
  0.18000048231123084     
  0.18000050105546270     
  0.18000050679882793     
  0.18000044999879075     
  0.18000035776833515     
  0.18000029444125268     
  0.18000016719776207     
  0.18000016610162500     
  0.18000007927597517     
  0.18000007472263868     
  0.18000004984805712     
  0.17999999997819710     
  0.17999997152582128     
  0.17999988148711629     
  0.17999980788400261     
  0.17999977322374891     
  0.18000046348997059     
  0.18000046411867343     
  0.18000045185023164     
  0.18000043373988189     
  0.18000040628916086     
  0.18000025636236167     
  0.18000010006977402     
  0.18000007294302406     
  0.18000004592776417     
  0.18000003434882292     
  0.18000002003890375     
  0.17999999761363325     
  0.17999995790435294     
  0.17999988749001719     
  0.17999981771493750     
  0.17999977262171021     
  0.24000027204588986     
  0.24000043333433083     
  0.24000042047181436     
  0.24000035492618821     
  0.24000030211656170     
  0.24000021493762036     
  0.24000017579535152     
  0.24000013189958014     
  0.24000006678326821     
  0.24000004208089240     
  0.24000000546284364     
  0.23999994378823372     
  0.23999986796076639     
  0.23999979678239677     
  0.23999977352226562     
  0.24000051006992287     
  0.24000047560187052     
  0.24000046724046964     
  0.24000042425691445     
  0.24000038493687514     
  0.24000031150543671     
  0.24000026128348753     
  0.24000018625502864     
  0.24000013702600981     
  0.24000010068983749     
  0.24000004855135290     
  0.24000001217527497     
  0.23999996727846229     
  0.23999988141982831     
  0.23999980802059387     
  0.23999977339080514     
  0.24000048140483146     
  0.24000049750955271     
  0.24000050059444750     
  0.24000044547683125     
  0.24000036062820090     
  0.24000029218038332     
  0.24000017784993483     
  0.24000016221236251     
  0.24000008620362098     
  0.24000007360140921     
  0.24000004603744327     
  0.23999999877007810     
  0.23999996468698429     
  0.23999988038729003     
  0.23999980755521760     
  0.23999977300720285     
  0.24000046244845974     
  0.24000046303288397     
  0.24000045477824114     
  0.24000043656697501     
  0.24000039715068594     
  0.24000026368937602     
  0.24000012341901225     
  0.24000008979230986     
  0.24000005790663331     
  0.24000004228218103     
  0.24000002406097667     
  0.23999999744696898     
  0.23999995620491874     
  0.23999988687577414     
  0.23999981743911572     
  0.23999977242821008     
  0.39000036088577644     
  0.39000043774299931     
  0.39000041486630427     
  0.39000035655217724     
  0.39000029840243666     
  0.39000022416088320     
  0.39000017535360493     
  0.39000012774338283     
  0.39000007206012233     
  0.39000003695022112     
  0.38999999591577261     
  0.38999993765883345     
  0.38999986568785261     
  0.38999979574603333     
  0.38999977272818337     
  0.39000050924571694     
  0.39000048525848191     
  0.39000047131220000     
  0.39000042530908668     
  0.39000037629031192     
  0.39000030836359206     
  0.39000024911954906     
  0.39000018431487776     
  0.39000013337986594     
  0.39000009254185908     
  0.39000004532362159     
  0.39000000406804536     
  0.38999995456548187     
  0.38999987815507658     
  0.38999980684960167     
  0.38999977258575680     
  0.39000047912036123     
  0.39000049165225265     
  0.39000049032548317     
  0.39000043794315520     
  0.39000036359475299     
  0.39000029067882425     
  0.39000019711799089     
  0.39000016002283189     
  0.39000009879151182     
  0.39000007268997888     
  0.39000003966084273     
  0.38999999484035103     
  0.38999995180707409     
  0.38999987712383116     
  0.38999980639944160     
  0.38999977222190046     
  0.39000046015749817     
  0.39000046070574806     
  0.39000045821228790     
  0.39000043955377628     
  0.39000038431253087     
  0.39000027754218874     
  0.39000016589047670     
  0.39000012130030376     
  0.39000008175258410     
  0.39000005699138102     
  0.39000003058648702     
  0.38999999655169554     
  0.38999995154481720     
  0.38999988480046333     
  0.38999981643118892     
  0.38999977170061939     
  0.54000041670962007     
  0.54000044508525435     
  0.54000041252046971     
  0.54000035656049350     
  0.54000029629358459     
  0.54000022855245711     
  0.54000017514108911     
  0.54000012524916974     
  0.54000007374858527     
  0.54000003279550324     
  0.53999998840132124     
  0.53999993167043447     
  0.53999986293822100     
  0.53999979433786627     
  0.53999977160757873     
  0.54000050987669512     
  0.54000049393569327     
  0.54000047470406909     
  0.54000042546044613     
  0.54000037128949108     
  0.54000030595342896     
  0.54000024340749420     
  0.54000018314423459     
  0.54000013147024228     
  0.54000008762311147     
  0.54000004184752859     
  0.53999999729220483     
  0.53999994506906746     
  0.53999987467073496     
  0.53999980533466463     
  0.53999977148313949     
  0.54000047747551827     
  0.54000048845284354     
  0.54000048437788761     
  0.54000043337853576     
  0.54000036440018062     
  0.54000029160095009     
  0.54000021040946988     
  0.54000016227928738     
  0.54000010761325368     
  0.54000007300321751     
  0.54000003562748011     
  0.53999999074028526     
  0.53999994252596317     
  0.53999987369538360     
  0.53999980491100319     
  0.53999977114885278     
  0.54000045844853217     
  0.54000045893198800     
  0.54000045927082141     
  0.54000044027294314     
  0.54000037789119371     
  0.54000028751975182     
  0.54000019475541383     
  0.54000014343442304     
  0.54000009925071646     
  0.54000006707270076     
  0.54000003421528953     
  0.53999999500199936     
  0.53999994684386377     
  0.53999988230327012     
  0.53999981510153927     
  0.53999977071401672     
  0.84000047474067119     
  0.84000045905128440     
  0.84000041230602862     
  0.84000035550712704     
  0.84000029450338198     
  0.84000023172474170     
  0.84000017539963812     
  0.84000012313746875     
  0.84000007295190104     
  0.84000002627388259     
  0.83999997738208587     
  0.83999992118869293     
  0.83999985692177981     
  0.83999979082448994     
  0.83999976871262849     
  0.84000051294181810     
  0.84000050600576426     
  0.84000048035117558     
  0.84000042552443244     
  0.84000036721434346     
  0.84000030393805525     
  0.84000024136238804     
  0.84000018335324189     
  0.84000013073377033     
  0.84000008307477236     
  0.84000003576429161     
  0.83999998705544687     
  0.83999993236283299     
  0.83999986792132120     
  0.83999980165749888     
  0.83999976861100933     
  0.84000047609824802     
  0.84000048675838102     
  0.84000047991810467     
  0.84000042938000175     
  0.84000036446494097     
  0.84000029586283842     
  0.84000022630797744     
  0.84000017093641677     
  0.84000011858309742     
  0.84000007495531948     
  0.84000003121572231     
  0.83999998344373217     
  0.83999993060260392     
  0.83999986716349850     