# vtk DataFile Version 2.0
3D Unstructured Grid of Linear Triangles
ASCII
DATASET UNSTRUCTURED_GRID
FIELD FieldData  1
TIME 1 1 double
       60005.01532
POINTS     1008 float
      5.00000000E-01  1.00000000E+01  1.00000000E+00
      1.00000000E+00  1.00000000E+01  1.00000004E+00
      1.50000000E+00  1.00000000E+01  1.00000011E+00
      2.00000000E+00  1.00000000E+01  1.00000017E+00
      2.50000000E+00  1.00000000E+01  1.00000024E+00
      3.00000000E+00  1.00000000E+01  1.00000030E+00
      3.50000000E+00  1.00000000E+01  1.00000037E+00
      4.00000000E+00  1.00000000E+01  1.00000043E+00
      4.50000000E+00  1.00000000E+01  1.00000050E+00
      5.00000000E+00  1.00000000E+01  1.00000056E+00
      5.50000000E+00  1.00000000E+01  1.00000063E+00
      6.00000000E+00  1.00000000E+01  1.00000069E+00
      6.50000000E+00  1.00000000E+01  1.00000076E+00
      7.00000000E+00  1.00000000E+01  1.00000082E+00
      7.50000000E+00  1.00000000E+01  1.00000084E+00
      0.00000000E+00  9.50000000E+00  1.00000000E+00
      5.00000000E-01  9.50000000E+00  1.00000000E+00
      1.00000000E+00  9.50000000E+00  1.00000003E+00
      1.50000000E+00  9.50000000E+00  1.00000010E+00
      2.00000000E+00  9.50000000E+00  1.00000016E+00
      2.50000000E+00  9.50000000E+00  1.00000023E+00
      3.00000000E+00  9.50000000E+00  1.00000029E+00
      3.50000000E+00  9.50000000E+00  1.00000036E+00
      4.00000000E+00  9.50000000E+00  1.00000042E+00
      4.50000000E+00  9.50000000E+00  1.00000049E+00
      5.00000000E+00  9.50000000E+00  1.00000055E+00
      5.50000000E+00  9.50000000E+00  1.00000062E+00
      6.00000000E+00  9.50000000E+00  1.00000068E+00
      6.50000000E+00  9.50000000E+00  1.00000075E+00
      7.00000000E+00  9.50000000E+00  1.00000081E+00
      7.50000000E+00  9.50000000E+00  1.00000084E+00
      0.00000000E+00  9.00000000E+00  1.00000004E+00
      5.00000000E-01  9.00000000E+00  1.00000003E+00
      1.00000000E+00  9.00000000E+00  1.00000004E+00
      1.50000000E+00  9.00000000E+00  1.00000010E+00
      2.00000000E+00  9.00000000E+00  1.00000016E+00
      2.50000000E+00  9.00000000E+00  1.00000023E+00
      3.00000000E+00  9.00000000E+00  1.00000029E+00
      3.50000000E+00  9.00000000E+00  1.00000036E+00
      4.00000000E+00  9.00000000E+00  1.00000042E+00
      4.50000000E+00  9.00000000E+00  1.00000049E+00
      5.00000000E+00  9.00000000E+00  1.00000055E+00
      5.50000000E+00  9.00000000E+00  1.00000062E+00
      6.00000000E+00  9.00000000E+00  1.00000068E+00
      6.50000000E+00  9.00000000E+00  1.00000075E+00
      7.00000000E+00  9.00000000E+00  1.00000081E+00
      7.50000000E+00  9.00000000E+00  1.00000084E+00
      0.00000000E+00  8.50000000E+00  1.00000007E+00
      5.00000000E-01  8.50000000E+00  1.00000007E+00
      1.00000000E+00  8.50000000E+00  1.00000007E+00
      1.50000000E+00  8.50000000E+00  1.00000009E+00
      2.00000000E+00  8.50000000E+00  1.00000015E+00
      2.50000000E+00  8.50000000E+00  1.00000022E+00
      3.00000000E+00  8.50000000E+00  1.00000028E+00
      3.50000000E+00  8.50000000E+00  1.00000035E+00
      4.00000000E+00  8.50000000E+00  1.00000041E+00
      4.50000000E+00  8.50000000E+00  1.00000048E+00
      5.00000000E+00  8.50000000E+00  1.00000054E+00
      5.50000000E+00  8.50000000E+00  1.00000061E+00
      6.00000000E+00  8.50000000E+00  1.00000067E+00
      6.50000000E+00  8.50000000E+00  1.00000074E+00
      7.00000000E+00  8.50000000E+00  1.00000080E+00
      7.50000000E+00  8.50000000E+00  1.00000084E+00
      5.00000000E-01  1.00000000E+01  9.94000000E-01
      1.00000000E+00  1.00000000E+01  9.94000043E-01
      1.50000000E+00  1.00000000E+01  9.94000108E-01
      2.00000000E+00  1.00000000E+01  9.94000173E-01
      2.50000000E+00  1.00000000E+01  9.94000238E-01
      3.00000000E+00  1.00000000E+01  9.94000303E-01
      3.50000000E+00  1.00000000E+01  9.94000368E-01
      4.00000000E+00  1.00000000E+01  9.94000433E-01
      4.50000000E+00  1.00000000E+01  9.94000498E-01
      5.00000000E+00  1.00000000E+01  9.94000563E-01
      5.50000000E+00  1.00000000E+01  9.94000628E-01
      6.00000000E+00  1.00000000E+01  9.94000693E-01
      6.50000000E+00  1.00000000E+01  9.94000758E-01
      7.00000000E+00  1.00000000E+01  9.94000823E-01
      7.50000000E+00  1.00000000E+01  9.94000845E-01
      0.00000000E+00  9.50000000E+00  9.94000000E-01
      5.00000000E-01  9.50000000E+00  9.94000000E-01
      1.00000000E+00  9.50000000E+00  9.94000033E-01
      1.50000000E+00  9.50000000E+00  9.94000098E-01
      2.00000000E+00  9.50000000E+00  9.94000163E-01
      2.50000000E+00  9.50000000E+00  9.94000227E-01
      3.00000000E+00  9.50000000E+00  9.94000292E-01
      3.50000000E+00  9.50000000E+00  9.94000358E-01
      4.00000000E+00  9.50000000E+00  9.94000423E-01
      4.50000000E+00  9.50000000E+00  9.94000488E-01
      5.00000000E+00  9.50000000E+00  9.94000553E-01
      5.50000000E+00  9.50000000E+00  9.94000618E-01
      6.00000000E+00  9.50000000E+00  9.94000683E-01
      6.50000000E+00  9.50000000E+00  9.94000747E-01
      7.00000000E+00  9.50000000E+00  9.94000812E-01
      7.50000000E+00  9.50000000E+00  9.94000845E-01
      0.00000000E+00  9.00000000E+00  9.94000043E-01
      5.00000000E-01  9.00000000E+00  9.94000033E-01
      1.00000000E+00  9.00000000E+00  9.94000043E-01
      1.50000000E+00  9.00000000E+00  9.94000098E-01
      2.00000000E+00  9.00000000E+00  9.94000163E-01
      2.50000000E+00  9.00000000E+00  9.94000227E-01
      3.00000000E+00  9.00000000E+00  9.94000292E-01
      3.50000000E+00  9.00000000E+00  9.94000358E-01
      4.00000000E+00  9.00000000E+00  9.94000423E-01
      4.50000000E+00  9.00000000E+00  9.94000488E-01
      5.00000000E+00  9.00000000E+00  9.94000553E-01
      5.50000000E+00  9.00000000E+00  9.94000618E-01
      6.00000000E+00  9.00000000E+00  9.94000683E-01
      6.50000000E+00  9.00000000E+00  9.94000747E-01
      7.00000000E+00  9.00000000E+00  9.94000812E-01
      7.50000000E+00  9.00000000E+00  9.94000845E-01
      0.00000000E+00  8.50000000E+00  9.94000065E-01
      5.00000000E-01  8.50000000E+00  9.94000065E-01
      1.00000000E+00  8.50000000E+00  9.94000065E-01
      1.50000000E+00  8.50000000E+00  9.94000087E-01
      2.00000000E+00  8.50000000E+00  9.94000152E-01
      2.50000000E+00  8.50000000E+00  9.94000217E-01
      3.00000000E+00  8.50000000E+00  9.94000282E-01
      3.50000000E+00  8.50000000E+00  9.94000347E-01
      4.00000000E+00  8.50000000E+00  9.94000412E-01
      4.50000000E+00  8.50000000E+00  9.94000477E-01
      5.00000000E+00  8.50000000E+00  9.94000542E-01
      5.50000000E+00  8.50000000E+00  9.94000607E-01
      6.00000000E+00  8.50000000E+00  9.94000672E-01
      6.50000000E+00  8.50000000E+00  9.94000737E-01
      7.00000000E+00  8.50000000E+00  9.94000802E-01
      7.50000000E+00  8.50000000E+00  9.94000845E-01
      5.00000000E-01  1.00000000E+01  9.82000000E-01
      1.00000000E+00  1.00000000E+01  9.82000043E-01
      1.50000000E+00  1.00000000E+01  9.82000108E-01
      2.00000000E+00  1.00000000E+01  9.82000173E-01
      2.50000000E+00  1.00000000E+01  9.82000238E-01
      3.00000000E+00  1.00000000E+01  9.82000303E-01
      3.50000000E+00  1.00000000E+01  9.82000368E-01
      4.00000000E+00  1.00000000E+01  9.82000433E-01
      4.50000000E+00  1.00000000E+01  9.82000498E-01
      5.00000000E+00  1.00000000E+01  9.82000563E-01
      5.50000000E+00  1.00000000E+01  9.82000628E-01
      6.00000000E+00  1.00000000E+01  9.82000693E-01
      6.50000000E+00  1.00000000E+01  9.82000758E-01
      7.00000000E+00  1.00000000E+01  9.82000823E-01
      7.50000000E+00  1.00000000E+01  9.82000845E-01
      0.00000000E+00  9.50000000E+00  9.82000000E-01
      5.00000000E-01  9.50000000E+00  9.82000000E-01
      1.00000000E+00  9.50000000E+00  9.82000033E-01
      1.50000000E+00  9.50000000E+00  9.82000098E-01
      2.00000000E+00  9.50000000E+00  9.82000163E-01
      2.50000000E+00  9.50000000E+00  9.82000227E-01
      3.00000000E+00  9.50000000E+00  9.82000292E-01
      3.50000000E+00  9.50000000E+00  9.82000358E-01
      4.00000000E+00  9.50000000E+00  9.82000423E-01
      4.50000000E+00  9.50000000E+00  9.82000488E-01
      5.00000000E+00  9.50000000E+00  9.82000553E-01
      5.50000000E+00  9.50000000E+00  9.82000618E-01
      6.00000000E+00  9.50000000E+00  9.82000683E-01
      6.50000000E+00  9.50000000E+00  9.82000747E-01
      7.00000000E+00  9.50000000E+00  9.82000812E-01
      7.50000000E+00  9.50000000E+00  9.82000845E-01
      0.00000000E+00  9.00000000E+00  9.82000043E-01
      5.00000000E-01  9.00000000E+00  9.82000033E-01
      1.00000000E+00  9.00000000E+00  9.82000043E-01
      1.50000000E+00  9.00000000E+00  9.82000098E-01
      2.00000000E+00  9.00000000E+00  9.82000163E-01
      2.50000000E+00  9.00000000E+00  9.82000227E-01
      3.00000000E+00  9.00000000E+00  9.82000292E-01
      3.50000000E+00  9.00000000E+00  9.82000358E-01
      4.00000000E+00  9.00000000E+00  9.82000423E-01
      4.50000000E+00  9.00000000E+00  9.82000488E-01
      5.00000000E+00  9.00000000E+00  9.82000553E-01
      5.50000000E+00  9.00000000E+00  9.82000618E-01
      6.00000000E+00  9.00000000E+00  9.82000683E-01
      6.50000000E+00  9.00000000E+00  9.82000747E-01
      7.00000000E+00  9.00000000E+00  9.82000812E-01
      7.50000000E+00  9.00000000E+00  9.82000845E-01
      0.00000000E+00  8.50000000E+00  9.82000065E-01
      5.00000000E-01  8.50000000E+00  9.82000065E-01
      1.00000000E+00  8.50000000E+00  9.82000065E-01
      1.50000000E+00  8.50000000E+00  9.82000087E-01
      2.00000000E+00  8.50000000E+00  9.82000152E-01
      2.50000000E+00  8.50000000E+00  9.82000217E-01
      3.00000000E+00  8.50000000E+00  9.82000282E-01
      3.50000000E+00  8.50000000E+00  9.82000347E-01
      4.00000000E+00  8.50000000E+00  9.82000412E-01
      4.50000000E+00  8.50000000E+00  9.82000477E-01
      5.00000000E+00  8.50000000E+00  9.82000542E-01
      5.50000000E+00  8.50000000E+00  9.82000607E-01
[...]
POINT_DATA     1008
SCALARS pressure float
LOOKUP_TABLE default
   2.4616589438171215E-009
   3.6335895534122607E-007
   3.3787022900464161E-007
   2.3882313719744435E-007
   2.1937456999849407E-007
   9.9900362875385023E-008
   9.0765138124772920E-008
   3.7903383581900331E-008
  -2.6662626390140290E-008
  -9.9126615318592072E-008
  -1.6834145428155927E-007
  -2.3548035479157490E-007
  -3.0155172687208698E-007
  -3.6704854106066788E-007
  -3.8884065434115599E-007
   4.2359221475364622E-007
   3.6736424617833519E-007
   3.6321490554573331E-007
   3.1362455309326042E-007
   3.1733866310867261E-007
   2.1488693510166977E-007
   2.0377517989896567E-007
   9.7519169302216676E-008
   5.2489280599080904E-008
   7.1322597014162050E-009
  -8.6058774555916595E-008
  -1.5721982266834390E-007
  -2.2460669177938581E-007
  -2.9071062276278665E-007
  -3.5621357191489656E-007
  -3.8885661676839114E-007
   3.8457438411720334E-007
   4.0599794883776331E-007
   4.2586847679640602E-007
   3.6375948108695555E-007
   2.4286608725953100E-007
   2.3838709455091822E-007
   6.4132197415734711E-008
   1.2667054832653849E-007
   7.5274755226207192E-009
   1.4332127023452353E-008
  -8.6427758760970847E-008
  -1.5752308718518001E-007
  -2.2473151070094205E-007
  -2.9075027899151420E-007
  -3.5623285634111837E-007
  -3.8887186782987249E-007
   3.6498667307634286E-007
   3.6030190652231709E-007
   3.3515756217718726E-007
   3.3060523247639206E-007
   3.3492931534459847E-007
   1.5745760146848309E-007
   8.5498345996123106E-010
   5.6670172891370234E-010
   1.5377887426959953E-010
  -1.5722602794673599E-008
  -8.0329848597817203E-008
  -1.4753000544218991E-007
  -2.1407408711692711E-007
  -2.7996159901488131E-007
  -3.4541348436500657E-007
  -3.8889972091753387E-007
   6.0000102629355224E-003
   6.0003622647076997E-003
   6.0003372036165044E-003
   6.0002397122510005E-003
   6.0002188834389278E-003
   6.0001012317098109E-003
   6.0000905865460925E-003
   6.0000377346870557E-003
   5.9999733344142832E-003
   5.9999008728393111E-003
   5.9998316583788824E-003
   5.9997645195237446E-003
   5.9996984483357951E-003
   5.9996329513775952E-003
   5.9996111592159279E-003
   6.0004232524921248E-003
   6.0003676954226079E-003
   6.0003636248906938E-003
   6.0003142231887215E-003
   6.0003161501811101E-003
   6.0002151850668557E-003
   6.0002022218033193E-003
   6.0000976839935331E-003
   6.0000521710499863E-003
   6.0000065471646682E-003
   5.9999139397843354E-003
   5.9998427799634376E-003
   5.9997753930188568E-003
   5.9997092892642287E-003
   5.9996437863081330E-003
   5.9996111432301831E-003
   6.0003845626889962E-003
   6.0004055927637551E-003
   6.0004248272113184E-003
   6.0003630338415657E-003
   6.0002439787594586E-003
   6.0002372042464742E-003
   6.0000658794475813E-003
   6.0001251466312300E-003
   6.0000081888170300E-003
   6.0000133795173518E-003
   5.9999135703972398E-003
   5.9998424766630389E-003
   5.9997752682939189E-003
   5.9997092494965196E-003
   5.9996437671181587E-003
   5.9996111279327462E-003
   6.0003648931563919E-003
   6.0003603417611044E-003
   6.0003360622349422E-003
   6.0003312065024794E-003
   6.0003333134768244E-003
   6.0001586722571052E-003
   6.0000035581820989E-003
   6.0000023557573020E-003
   6.0000006436409306E-003
   5.9999842762082653E-003
   5.9999196697582188E-003
   5.9998524696678610E-003
   5.9997859258931752E-003
   5.9997200384032797E-003
   5.9996545864773520E-003
   5.9996111001354652E-003
   1.8000025431288348E-002
   1.8000360119783596E-002
   1.8000335816588924E-002
   1.8000241302017675E-002
   1.8000217852208771E-002
   1.8000103700918885E-002
   1.8000090159583135E-002
   1.8000037364458800E-002
   1.7999973312280638E-002
   1.7999900868800930E-002
   1.7999831656971176E-002
   1.7999764518987098E-002
   1.7999698448071640E-002
   1.7999632951185614E-002
   1.7999611158942032E-002
   1.8000422501433938E-002
   1.8000368282167750E-002
   1.8000364314461993E-002
   1.8000315271338958E-002
   1.8000313769098993E-002
   1.8000215645686855E-002
   1.8000199141104654E-002
   1.8000097901393342E-002
   1.8000051452490059E-002
   1.8000005370343068E-002
   1.7999913928806083E-002
   1.7999842778157873E-002
   1.7999775391926973E-002
   1.7999709288690879E-002
   1.7999643785929997E-002
   1.7999611142874617E-002
   1.8000384425054011E-002
   1.8000404695458928E-002
   1.8000422703276432E-002
   1.8000361534977121E-002
   1.8000246003724300E-002
   1.8000234880298012E-002
   1.8000069212100841E-002
   1.8000122175138446E-002
   1.8000009412692416E-002
   1.8000011473097585E-002
   1.7999913556214660E-002
   1.7999842474764837E-002
   1.7999775267444108E-002
   1.7999709248776648E-002
   1.7999643766834734E-002
   1.7999611127312087E-002
   1.8000364605773769E-002
   1.8000360309066682E-002
   1.8000337693200020E-002
   1.8000332254988382E-002
   1.8000330112080784E-002
   1.8000160945526315E-002
   1.8000008827086890E-002
   1.8000005818343403E-002
   1.8000001614077811E-002
   1.7999984262404848E-002
   1.7999919665950659E-002
   1.7999852468299334E-002
   1.7999785925150724E-002
   1.7999720038101762E-002
   1.7999654586110782E-002
   1.7999611100133987E-002
   3.6000047093858047E-002
   3.6000357256758167E-002
   3.6000333874619601E-002
   3.6000243481923197E-002
   3.6000216424890354E-002
   3.6000107120528889E-002
   3.6000089565448069E-002
   3.6000036813291260E-002
   3.5999973241835237E-002
   3.5999900854486747E-002
   3.5999831652255114E-002
   3.5999764516974751E-002
   3.5999698447063237E-002
   3.5999632950551058E-002
   3.5999611158366772E-002
   3.6000421448893594E-002
   3.6000369222641451E-002
   3.6000365280473061E-002
   3.6000316708371796E-002
   3.6000310441628547E-002
   3.6000216213594859E-002
   3.6000194843298833E-002
   3.6000098138747230E-002
   3.6000050423209320E-002
   3.6000003670548307E-002
   3.5999913893298569E-002
   3.5999842771982780E-002
   3.5999775389143410E-002
   3.5999709287307273E-002
   3.5999643784922972E-002
   3.5999611142025725E-002
   3.6000384201648319E-002
   3.6000403415801158E-002
   3.6000419699240817E-002
   3.6000359426966458E-002
   3.6000248776087998E-002
   3.6000231673617177E-002
   3.6000073911564491E-002
   3.6000118060501615E-002
   3.6000011099256560E-002
   3.6000008769167480E-002
   3.5999913510679431E-002
   3.5999842468226309E-002
   3.5999775264947943E-002
   3.5999709247133971E-002
   3.5999643766055626E-002
   3.5999611126289618E-002
   3.6000364195121440E-002
   3.6000360255457581E-002
   3.6000339958073585E-002
   3.6000333687381078E-002
   3.6000325660683737E-002
   3.6000164152598019E-002
   3.6000016404842725E-002
   3.6000010738888082E-002
   3.6000003044695472E-002
   3.5999984214047695E-002
   3.5999919653070804E-002
   3.5999852463589728E-002
   3.5999785923077045E-002
   3.5999720036954855E-002
   3.5999654585381020E-002
   3.5999611099510165E-002
   6.0000074031480680E-002
   6.0000354049536041E-002
   6.0000331526862641E-002
   6.0000246040555358E-002
   6.0000214724308207E-002
   6.0000111193809047E-002
   6.0000088849977713E-002
   6.0000036087839284E-002
   5.9999973085750100E-002
   5.9999900820352059E-002
   5.9999831640820768E-002
   5.9999764512143929E-002
   5.9999698444646629E-002
   5.9999632949044500E-002
   5.9999611156560988E-002
   6.0000420178379324E-002
   6.0000370577220984E-002
   6.0000366455728427E-002
   6.0000318396550539E-002
   6.0000306419781456E-002
   6.0000216770492394E-002
   6.0000189663563630E-002
   6.0000098311736610E-002
   6.0000049133740026E-002
   6.0000001520006174E-002
   5.9999913813579754E-002
   5.9999842757407738E-002
   5.9999775383231778E-002
   5.9999709284363788E-002
   5.9999643782937838E-002
   5.9999611140314754E-002
   6.0000383878481070E-002
   6.0000401827763193E-002
   6.0000416009480348E-002
   6.0000356855855218E-002
   6.0000252026515558E-002
   6.0000227870711353E-002
   6.0000079664401108E-002
   6.0000113157310776E-002
   6.0000013095843151E-002
   6.0000005432866363E-002
   5.9999913409795387E-002
   5.9999842452836342E-002
   5.9999775259343149E-002
   5.9999709243869527E-002
   5.9999643764166111E-002
   5.9999611124334683E-002
   6.0000363682127932E-002
   6.0000360175541279E-002
   6.0000342668378281E-002
   6.0000335361948022E-002
   6.0000320315959664E-002
   6.0000168083777193E-002
   6.0000025932856138E-002
   6.0000016827578558E-002
   6.0000004899451204E-002
   5.9999984103368972E-002
   5.9999919622662122E-002
   5.9999852452563222E-002
   5.9999785918207760E-002
   5.9999720034273979E-002
   5.9999654583769664E-002
   5.9999611098105442E-002
   9.0000104802384157E-002
   9.0000350906629653E-002
   9.0000328943911342E-002
   9.0000248748782680E-002
   9.0000212880741226E-002
   9.0000115593850433E-002
   9.0000088059325925E-002
   9.0000035198765121E-002
   8.9999972805488687E-002
   8.9999900754140133E-002
   8.9999831618297693E-002
   8.9999764502592908E-002
   8.9999698439591685E-002
   8.9999632945816199E-002
   8.9999611153706929E-002
   9.0000418789448824E-002
   9.0000372400543871E-002
   9.0000367771302839E-002
   9.0000320187629379E-002
   9.0000301980889999E-002
   9.0000217199558349E-002
   9.0000183972584066E-002
   9.0000098338787263E-002
   9.0000047640798483E-002
   8.9999999006121961E-002
   8.9999913668213569E-002
   8.9999842729131113E-002
   8.9999775372208976E-002
   8.9999709278876211E-002
   8.9999643779454311E-002
   8.9999611137289909E-002
   9.0000383445772672E-002
   9.0000400020923493E-002
   9.0000411857564480E-002
   9.0000353984208109E-002
   9.0000255465773810E-002
   9.0000223783779726E-002
   9.0000086119568945E-002
   9.0000107856366598E-002
   9.0000015237116440E-002
   9.0000001652689066E-002
   8.9999913229163078E-002
   8.9999842423177503E-002
   8.9999775248673128E-002
   8.9999709238047496E-002
   8.9999643760776793E-002
   8.9999611120992556E-002
   9.0000363089994290E-002
   9.0000360063384161E-002
   9.0000345614340019E-002
   9.0000337126089777E-002
   9.0000314468328013E-002
   9.0000172506252141E-002
   9.0000036977433501E-002
   9.0000023753464276E-002
   9.0000007124428683E-002
   8.9999983903382708E-002
   8.9999919563752265E-002
   8.9999852431220204E-002
   8.9999785908738791E-002
   8.9999720029295946E-002
   8.9999654580590560E-002
   8.9999611095449364E-002
  0.12000013256531221     
  0.12000034860734338     
  0.12000032671160628     
  0.12000025099212550     
  0.12000021130526217     
  0.12000011932846576     
  0.12000008736385218     
  0.12000003433243306     
  0.11999997244938711     
  0.11999990066245329     
  0.11999983158650632     
  0.11999976448884637     
  0.11999969843250610     
  0.11999963294129749     
  0.11999961114967518     
  0.12000041760787768     
  0.12000037434598648     
  0.12000036894849637     
  0.12000032168076542     
  0.12000029810174512     
  0.12000021739584088     
  0.12000017902969362     
  0.12000009820379255     
  0.12000004626285443     
  0.11999999667007513     
  0.11999991348012642     
  0.11999984268998433     
  0.11999977535722789     
  0.11999970927145426     
  0.11999964377464988     
  0.11999961113320538     
  0.12000038299576408     
  0.12000039839642855     
  0.12000040815879277     
  0.12000035144123165     
  0.12000025832354996     
  0.12000022032571576     
  0.12000009186449953     
  0.12000010334313539     
  0.12000001704540958     
  0.11999999825437402     
  0.11999991299969032     
  0.11999984238232426     
  0.11999977523393750     
  0.11999970923039147     
  0.11999964375617399     
  0.11999961111667720     
  0.12000036254469815     
  0.12000035993865332     
  0.12000034813988200     
  0.12000033858586548     
  0.12000030939699105     
  0.12000017645836418     
  0.12000004714995621     
  0.12000003000804860     
  0.12000000923670461     
  0.11999998364566389     
  0.11999991948252703     
  0.11999985240176719     
  0.11999978589575233     
  0.11999972002249248     
  0.11999965457627366     
  0.11999961109188509     
  0.18000018087450351     
  0.18000034587963484     
  0.18000032310641231     
  0.18000025434938405     
  0.18000020875866152     
  0.18000012516604891     
  0.18000008617502150     
  0.18000003266109929     
  0.17999997154299233     
  0.17999990041033145     
  0.17999983149820048     
  0.17999976445068927     
  0.17999969841288022     
  0.17999963292876894     
  0.17999961113881874     
  0.18000041574210998     
  0.18000037831100721     
  0.18000037096631472     
  0.18000032391843493     
  0.18000029178183952     
  0.18000021724830914     
  0.18000017107162319     
  0.18000009756646573     
  0.18000004380901211     
  0.17999999248840293     
  0.17999991299661905     
  0.17999984258073864     
  0.17999977531542252     
  0.17999970925073319     
  0.17999964376160235     
  0.17999961112202412     
  0.18000038206914123     
  0.18000039564941195     
  0.18000040196587655     
  0.18000034720866204     
  0.18000026257962617     
  0.18000021500896166     
  0.18000010150155354     
  0.18000009633713027     
  0.18000001981869329     
  0.17999999246743634     
  0.17999991242447347     
  0.17999984226856525     
  0.17999977519265184     
  0.17999970920928668     
  0.17999964374325617     
  0.17999961110516538     
  0.18000036158293894     
  0.18000035967080855     
  0.18000035207562687     
  0.18000034070934440     
  0.18000030136852316     
  0.18000018313746424     
  0.18000006494909573     
  0.18000004074275150     
  0.18000001311652405     
  0.17999998304359305     
  0.17999991926109271     
  0.17999985231833893     
  0.17999978585835527     
  0.17999972000269016     
  0.17999965456378300     
  0.17999961108138465     
  0.24000022041895169     
  0.24000034513342347     
  0.24000032045199307     
  0.24000025660699689     
  0.24000020682677814     
  0.24000012935126158     
  0.24000008517919427     
  0.24000003109020279     
  0.23999997048949362     
  0.23999990007567962     
  0.23999983137583558     
  0.23999976439700252     
  0.23999969838504417     
  0.23999963291108378     
  0.23999961112336193     
  0.24000041447619605     
  0.24000038238422655     
  0.24000037269071139     
  0.24000032546169645     
  0.24000028687599298     
  0.24000021669092830     
  0.24000016501395155     
  0.24000009667050323     
  0.24000004167006581     
  0.23999998885829088     
  0.23999991241587806     
  0.23999984243419303     
  0.23999977525857463     
  0.23999970922234157     
  0.23999964374373056     
  0.23999961110678261     
  0.24000038118551836     
  0.24000039346274987     
  0.24000039703723350     
  0.24000034383520183     
  0.24000026547899131     
  0.24000021122438561     
  0.24000010925905013     
  0.24000009129751335     
  0.24000002179102095     
  0.23999998773064485     
  0.23999991175621885     
  0.23999984211732067     
  0.23999977513632256     
  0.23999970918072766     
  0.23999964372555221     
  0.23999961108977802     
  0.24000036075478595     
  0.24000035938462216     
  0.24000035494084238     
  0.24000034211249702     
  0.24000029528119615     
  0.24000018858608060     
  0.24000008003018009     
  0.24000004961353549     
  0.24000001652652986     
  0.23999998234352332     
  0.23999991897000583     
  0.23999985220546471     
  0.23999978580747985     
  0.23999971997575961     
  0.23999965454675168     
  0.23999961106730691     
  0.39000029254902080     
  0.39000034805807177     
  0.39000031666454632     
  0.39000025904264163     
  0.39000020361468896     
  0.39000013488742685     
  0.39000008314224177     
  0.39000002754658969     
  0.38999996743628362     
  0.38999989895670567     
  0.38999983094860147     
  0.38999976420722055     
  0.38999969828604064     
  0.38999963284786993     
  0.38999961106878805     
  0.39000041309739253     
  0.39000039155375649     
  0.39000037615621130     
  0.39000032725090011     
  0.39000027917456898     
  0.39000021441482863     
  0.39000015599652876     
  0.39000009396995233     
  0.39000003742125017     
  0.38999998181754553     
  0.38999991069355805     
  0.38999984192520937     
  0.38999977505413430     
  0.38999970911909831     
  0.38999964367859907     
  0.38999961105145181     
  0.39000037927008857     
  0.39000039002425119     
  0.39000038906595874     
  0.39000033825232133     
  0.39000026866595749     
  0.39000020653309814     
  0.39000012237185538     
  0.39000008491586369     
  0.39000002425050689     
  0.38999997948011195     
  0.38999990987289729     
  0.38999984159859802     
  0.38999977493334609     
  0.38999970907748915     
  0.38999964366087780     
  0.38999961103464231     
  0.39000035918056575     
  0.39000035869160038     
  0.39000035857341536     
  0.39000034336648126     
  0.39000028676311149     
  0.39000019812406567     
  0.39000010705903704     
  0.39000006536564119     
  0.39000002310213799     
  0.38999998065134939     
  0.38999991803045947     
  0.38999985180287455     
  0.38999978561904147     
  0.38999971987462123     
  0.38999965448218898     
  0.38999961101377684     
  0.54000033796972791     
  0.54000035374627908     
  0.54000031528212045     
  0.54000025960707287     
  0.54000020160553341     
  0.54000013704552507     
  0.54000008145284084     
  0.54000002458183771     
  0.53999996449760723     
  0.53999989763262490     
  0.53999983038158017     
  0.53999976394111338     
  0.53999969814362581     
  0.53999963275580543     
  0.53999961098838756     
  0.54000041334365301     
  0.54000039946205691     
  0.54000037912935961     
  0.54000032795313602     
  0.54000027475729850     
  0.54000021227436013     
  0.54000015125490064     
  0.54000009159073592     
  0.54000003418648890     
  0.53999997670329647     
  0.53999990891443161     
  0.53999984128772771     
  0.53999977477755157     
  0.53999970897506133     
  0.53999964358659558     
  0.53999961097318439     
  0.54000037808250401     
  0.54000038837214637     
  0.54000038461286004     
  0.54000033488884280     
  0.54000026958259129     
  0.54000020484680067     
  0.54000013060812158     
  0.54000008254269938     
  0.54000002517241441     
  0.53999997412409395     
  0.53999990803654929     
  0.53999984096230735     
  0.53999977465989968     
  0.53999970893425231     
  0.53999964356948527     
  0.53999961095719595     
  0.54000035816419423     
  0.54000035817532732     
  0.54000036002532836     
  0.54000034341670400     
  0.54000028243572795     
  0.54000020441678787     
  0.54000012493810590     
  0.54000007570001973     
  0.54000002753787202     
  0.53999997903524277     
  0.53999991693386251     
  0.53999985128316563     
  0.53999978536446525     
  0.53999971973537209     
  0.53999965439234932     
  0.53999961093918514     
  0.84000038539432975     
  0.84000036508358689     
  0.84000031565551092     
  0.84000025896317521     
  0.84000019925010083     
  0.84000013738650769     
  0.84000007875632643     
  0.84000002008703001     
  0.83999995950660422     
  0.83999989483499526     
  0.83999982901362302     
  0.83999976325291548     
  0.83999969776153405     
  0.83999963250420595     
  0.83999961076880802     
  0.84000041592755137     
  0.84000041024972727     
  0.84000038415128375     
  0.84000032852642437     
  0.84000027099298713     
  0.84000020955927679     
  0.84000014789188493     
  0.84000008847734564     
  0.84000002984029587     
  0.83999997032424079     
  0.83999990567047889     
  0.83999983981889115     
  0.83999977406594639     
  0.83999970858567252     
  0.83999964333227672     
  0.83999961075562635     
  0.84000037751863210     
  0.84000038817000044     
  0.84000038161131008     
  0.84000033193919588     
  0.84000026931928218     
  0.84000020507563211     
  0.84000013889512803     
  0.84000008263820558     
  0.84000002516181305     
  0.83999996837527613     
  0.83999990491596099     
  0.83999983953177748     
  0.83999977396023606     
  0.83999970854798744     