# vtk DataFile Version 2.0
3D Unstructured Grid of Linear Triangles
ASCII
DATASET UNSTRUCTURED_GRID
FIELD FieldData  1
TIME 1 1 double
       80000.00000
POINTS     1008 float
      5.00000000E-01  1.00000000E+01  1.00000000E+00
      1.00000000E+00  1.00000000E+01  1.00000004E+00
      1.50000000E+00  1.00000000E+01  1.00000011E+00
      2.00000000E+00  1.00000000E+01  1.00000017E+00
      2.50000000E+00  1.00000000E+01  1.00000024E+00
      3.00000000E+00  1.00000000E+01  1.00000030E+00
      3.50000000E+00  1.00000000E+01  1.00000037E+00
      4.00000000E+00  1.00000000E+01  1.00000043E+00
      4.50000000E+00  1.00000000E+01  1.00000050E+00
      5.00000000E+00  1.00000000E+01  1.00000056E+00
      5.50000000E+00  1.00000000E+01  1.00000063E+00
      6.00000000E+00  1.00000000E+01  1.00000069E+00
      6.50000000E+00  1.00000000E+01  1.00000076E+00
      7.00000000E+00  1.00000000E+01  1.00000082E+00
      7.50000000E+00  1.00000000E+01  1.00000084E+00
      0.00000000E+00  9.50000000E+00  1.00000000E+00
      5.00000000E-01  9.50000000E+00  1.00000000E+00
      1.00000000E+00  9.50000000E+00  1.00000003E+00
      1.50000000E+00  9.50000000E+00  1.00000010E+00
      2.00000000E+00  9.50000000E+00  1.00000016E+00
      2.50000000E+00  9.50000000E+00  1.00000023E+00
      3.00000000E+00  9.50000000E+00  1.00000029E+00
      3.50000000E+00  9.50000000E+00  1.00000036E+00
      4.00000000E+00  9.50000000E+00  1.00000042E+00
      4.50000000E+00  9.50000000E+00  1.00000049E+00
      5.00000000E+00  9.50000000E+00  1.00000055E+00
      5.50000000E+00  9.50000000E+00  1.00000062E+00
      6.00000000E+00  9.50000000E+00  1.00000068E+00
      6.50000000E+00  9.50000000E+00  1.00000075E+00
      7.00000000E+00  9.50000000E+00  1.00000081E+00
      7.50000000E+00  9.50000000E+00  1.00000084E+00
      0.00000000E+00  9.00000000E+00  1.00000004E+00
      5.00000000E-01  9.00000000E+00  1.00000003E+00
      1.00000000E+00  9.00000000E+00  1.00000004E+00
      1.50000000E+00  9.00000000E+00  1.00000010E+00
      2.00000000E+00  9.00000000E+00  1.00000016E+00
      2.50000000E+00  9.00000000E+00  1.00000023E+00
      3.00000000E+00  9.00000000E+00  1.00000029E+00
      3.50000000E+00  9.00000000E+00  1.00000036E+00
      4.00000000E+00  9.00000000E+00  1.00000042E+00
      4.50000000E+00  9.00000000E+00  1.00000049E+00
      5.00000000E+00  9.00000000E+00  1.00000055E+00
      5.50000000E+00  9.00000000E+00  1.00000062E+00
      6.00000000E+00  9.00000000E+00  1.00000068E+00
      6.50000000E+00  9.00000000E+00  1.00000075E+00
      7.00000000E+00  9.00000000E+00  1.00000081E+00
      7.50000000E+00  9.00000000E+00  1.00000084E+00
      0.00000000E+00  8.50000000E+00  1.00000007E+00
      5.00000000E-01  8.50000000E+00  1.00000007E+00
      1.00000000E+00  8.50000000E+00  1.00000007E+00
      1.50000000E+00  8.50000000E+00  1.00000009E+00
      2.00000000E+00  8.50000000E+00  1.00000015E+00
      2.50000000E+00  8.50000000E+00  1.00000022E+00
      3.00000000E+00  8.50000000E+00  1.00000028E+00
      3.50000000E+00  8.50000000E+00  1.00000035E+00
      4.00000000E+00  8.50000000E+00  1.00000041E+00
      4.50000000E+00  8.50000000E+00  1.00000048E+00
      5.00000000E+00  8.50000000E+00  1.00000054E+00
      5.50000000E+00  8.50000000E+00  1.00000061E+00
      6.00000000E+00  8.50000000E+00  1.00000067E+00
      6.50000000E+00  8.50000000E+00  1.00000074E+00
      7.00000000E+00  8.50000000E+00  1.00000080E+00
      7.50000000E+00  8.50000000E+00  1.00000084E+00
      5.00000000E-01  1.00000000E+01  9.94000000E-01
      1.00000000E+00  1.00000000E+01  9.94000043E-01
      1.50000000E+00  1.00000000E+01  9.94000108E-01
      2.00000000E+00  1.00000000E+01  9.94000173E-01
      2.50000000E+00  1.00000000E+01  9.94000238E-01
      3.00000000E+00  1.00000000E+01  9.94000303E-01
      3.50000000E+00  1.00000000E+01  9.94000368E-01
      4.00000000E+00  1.00000000E+01  9.94000433E-01
      4.50000000E+00  1.00000000E+01  9.94000498E-01
      5.00000000E+00  1.00000000E+01  9.94000563E-01
      5.50000000E+00  1.00000000E+01  9.94000628E-01
      6.00000000E+00  1.00000000E+01  9.94000693E-01
      6.50000000E+00  1.00000000E+01  9.94000758E-01
      7.00000000E+00  1.00000000E+01  9.94000823E-01
      7.50000000E+00  1.00000000E+01  9.94000845E-01
      0.00000000E+00  9.50000000E+00  9.94000000E-01
      5.00000000E-01  9.50000000E+00  9.94000000E-01
      1.00000000E+00  9.50000000E+00  9.94000033E-01
      1.50000000E+00  9.50000000E+00  9.94000098E-01
      2.00000000E+00  9.50000000E+00  9.94000163E-01
      2.50000000E+00  9.50000000E+00  9.94000227E-01
      3.00000000E+00  9.50000000E+00  9.94000292E-01
      3.50000000E+00  9.50000000E+00  9.94000358E-01
      4.00000000E+00  9.50000000E+00  9.94000423E-01
      4.50000000E+00  9.50000000E+00  9.94000488E-01
      5.00000000E+00  9.50000000E+00  9.94000553E-01
      5.50000000E+00  9.50000000E+00  9.94000618E-01
      6.00000000E+00  9.50000000E+00  9.94000683E-01
      6.50000000E+00  9.50000000E+00  9.94000747E-01
      7.00000000E+00  9.50000000E+00  9.94000812E-01
      7.50000000E+00  9.50000000E+00  9.94000845E-01
      0.00000000E+00  9.00000000E+00  9.94000043E-01
      5.00000000E-01  9.00000000E+00  9.94000033E-01
      1.00000000E+00  9.00000000E+00  9.94000043E-01
      1.50000000E+00  9.00000000E+00  9.94000098E-01
      2.00000000E+00  9.00000000E+00  9.94000163E-01
      2.50000000E+00  9.00000000E+00  9.94000227E-01
      3.00000000E+00  9.00000000E+00  9.94000292E-01
      3.50000000E+00  9.00000000E+00  9.94000358E-01
      4.00000000E+00  9.00000000E+00  9.94000423E-01
      4.50000000E+00  9.00000000E+00  9.94000488E-01
      5.00000000E+00  9.00000000E+00  9.94000553E-01
      5.50000000E+00  9.00000000E+00  9.94000618E-01
      6.00000000E+00  9.00000000E+00  9.94000683E-01
      6.50000000E+00  9.00000000E+00  9.94000747E-01
      7.00000000E+00  9.00000000E+00  9.94000812E-01
      7.50000000E+00  9.00000000E+00  9.94000845E-01
      0.00000000E+00  8.50000000E+00  9.94000065E-01
      5.00000000E-01  8.50000000E+00  9.94000065E-01
      1.00000000E+00  8.50000000E+00  9.94000065E-01
      1.50000000E+00  8.50000000E+00  9.94000087E-01
      2.00000000E+00  8.50000000E+00  9.94000152E-01
      2.50000000E+00  8.50000000E+00  9.94000217E-01
      3.00000000E+00  8.50000000E+00  9.94000282E-01
      3.50000000E+00  8.50000000E+00  9.94000347E-01
      4.00000000E+00  8.50000000E+00  9.94000412E-01
      4.50000000E+00  8.50000000E+00  9.94000477E-01
      5.00000000E+00  8.50000000E+00  9.94000542E-01
      5.50000000E+00  8.50000000E+00  9.94000607E-01
      6.00000000E+00  8.50000000E+00  9.94000672E-01
      6.50000000E+00  8.50000000E+00  9.94000737E-01
      7.00000000E+00  8.50000000E+00  9.94000802E-01
      7.50000000E+00  8.50000000E+00  9.94000845E-01
      5.00000000E-01  1.00000000E+01  9.82000000E-01
      1.00000000E+00  1.00000000E+01  9.82000043E-01
      1.50000000E+00  1.00000000E+01  9.82000108E-01
      2.00000000E+00  1.00000000E+01  9.82000173E-01
      2.50000000E+00  1.00000000E+01  9.82000238E-01
      3.00000000E+00  1.00000000E+01  9.82000303E-01
      3.50000000E+00  1.00000000E+01  9.82000368E-01
      4.00000000E+00  1.00000000E+01  9.82000433E-01
      4.50000000E+00  1.00000000E+01  9.82000498E-01
      5.00000000E+00  1.00000000E+01  9.82000563E-01
      5.50000000E+00  1.00000000E+01  9.82000628E-01
      6.00000000E+00  1.00000000E+01  9.82000693E-01
      6.50000000E+00  1.00000000E+01  9.82000758E-01
      7.00000000E+00  1.00000000E+01  9.82000823E-01
      7.50000000E+00  1.00000000E+01  9.82000845E-01
      0.00000000E+00  9.50000000E+00  9.82000000E-01
      5.00000000E-01  9.50000000E+00  9.82000000E-01
      1.00000000E+00  9.50000000E+00  9.82000033E-01
      1.50000000E+00  9.50000000E+00  9.82000098E-01
      2.00000000E+00  9.50000000E+00  9.82000163E-01
      2.50000000E+00  9.50000000E+00  9.82000227E-01
      3.00000000E+00  9.50000000E+00  9.82000292E-01
      3.50000000E+00  9.50000000E+00  9.82000358E-01
      4.00000000E+00  9.50000000E+00  9.82000423E-01
      4.50000000E+00  9.50000000E+00  9.82000488E-01
      5.00000000E+00  9.50000000E+00  9.82000553E-01
      5.50000000E+00  9.50000000E+00  9.82000618E-01
      6.00000000E+00  9.50000000E+00  9.82000683E-01
      6.50000000E+00  9.50000000E+00  9.82000747E-01
      7.00000000E+00  9.50000000E+00  9.82000812E-01
      7.50000000E+00  9.50000000E+00  9.82000845E-01
      0.00000000E+00  9.00000000E+00  9.82000043E-01
      5.00000000E-01  9.00000000E+00  9.82000033E-01
      1.00000000E+00  9.00000000E+00  9.82000043E-01
      1.50000000E+00  9.00000000E+00  9.82000098E-01
      2.00000000E+00  9.00000000E+00  9.82000163E-01
      2.50000000E+00  9.00000000E+00  9.82000227E-01
      3.00000000E+00  9.00000000E+00  9.82000292E-01
      3.50000000E+00  9.00000000E+00  9.82000358E-01
      4.00000000E+00  9.00000000E+00  9.82000423E-01
      4.50000000E+00  9.00000000E+00  9.82000488E-01
      5.00000000E+00  9.00000000E+00  9.82000553E-01
      5.50000000E+00  9.00000000E+00  9.82000618E-01
      6.00000000E+00  9.00000000E+00  9.82000683E-01
      6.50000000E+00  9.00000000E+00  9.82000747E-01
      7.00000000E+00  9.00000000E+00  9.82000812E-01
      7.50000000E+00  9.00000000E+00  9.82000845E-01
      0.00000000E+00  8.50000000E+00  9.82000065E-01
      5.00000000E-01  8.50000000E+00  9.82000065E-01
      1.00000000E+00  8.50000000E+00  9.82000065E-01
      1.50000000E+00  8.50000000E+00  9.82000087E-01
      2.00000000E+00  8.50000000E+00  9.82000152E-01
      2.50000000E+00  8.50000000E+00  9.82000217E-01
      3.00000000E+00  8.50000000E+00  9.82000282E-01
      3.50000000E+00  8.50000000E+00  9.82000347E-01
      4.00000000E+00  8.50000000E+00  9.82000412E-01
      4.50000000E+00  8.50000000E+00  9.82000477E-01
      5.00000000E+00  8.50000000E+00  9.82000542E-01
      5.50000000E+00  8.50000000E+00  9.82000607E-01
[...]
POINT_DATA     1008
SCALARS pressure float
LOOKUP_TABLE default
   1.4844492817737357E-009
   2.8118609583182528E-007
   2.5243558139198696E-007
   1.6184796209429145E-007
   1.3414732930856642E-007
   4.5751767876954625E-008
   2.4816286586590510E-009
  -6.3630961486443081E-008
  -1.3091203984133150E-007
  -1.9728070995062596E-007
  -2.6302284144668205E-007
  -3.2841947577207855E-007
  -3.9363201551930501E-007
  -4.5873506432680371E-007
  -4.8042708374145884E-007
   3.4178548182928402E-007
   2.9364282925306631E-007
   2.8189356529718379E-007
   2.3978252129014995E-007
   2.2369292199918947E-007
   1.4397349774508342E-007
   1.0055301425308194E-007
   3.1815567619835486E-008
  -5.0481016714217724E-008
  -1.1972222767006862E-007
  -1.8639602274913653E-007
  -2.5218233084438126E-007
  -3.1757550067053023E-007
  -3.8279131583921791E-007
  -4.4789656057108538E-007
  -4.8042660023653164E-007
   3.0067937746739001E-007
   3.1846471866872406E-007
   3.3394189801432289E-007
   2.7690611752734287E-007
   1.7000938950722260E-007
   1.6704949418466689E-007
   2.9654285935122475E-008
   5.8516163001315325E-008
  -4.9106510381859638E-008
  -1.1976269489156349E-007
  -1.8646883768451259E-007
  -2.5221428433186484E-007
  -3.1759054673361248E-007
  -3.8279040150474468E-007
  -4.4789918987173137E-007
  -4.8042531658515759E-007
   2.8007851294292804E-007
   2.7527597706122135E-007
   2.5733385758895043E-007
   2.5521088261164936E-007
   2.4114676885203297E-007
   1.0338110356406695E-007
   3.6142678301990912E-010
   1.0505250339799307E-010
  -4.5767787921083471E-008
  -1.1016456046675028E-007
  -1.7587040998398701E-007
  -2.4142960153957978E-007
  -3.0677271961156721E-007
  -3.7196801108767580E-007
  -4.3706995293141640E-007
  -4.8043733223391629E-007
   6.0000077611966039E-003
   6.0002803588654124E-003
   6.0002519200870307E-003
   6.0001625555729131E-003
   6.0001338952667951E-003
   6.0000463448652520E-003
   6.0000025223787383E-003
   5.9999363687994450E-003
   5.9998690878395079E-003
   5.9998027191860434E-003
   5.9997369771164029E-003
   5.9996715804507151E-003
   5.9996063680710053E-003
   5.9995412648695418E-003
   5.9995195727987000E-003
   6.0003414787954262E-003
   6.0002939304250637E-003
   6.0002823306386649E-003
   6.0002401479056335E-003
   6.0002228881885786E-003
   6.0001440084656811E-003
   6.0000998551778973E-003
   6.0000315418010175E-003
   5.9999495181211502E-003
   5.9998802776003862E-003
   5.9998136038843910E-003
   5.9997478176604816E-003
   5.9996824242330845E-003
   5.9996172085814469E-003
   5.9995521033236153E-003
   5.9995195732484340E-003
   6.0003006597086741E-003
   6.0003181645453523E-003
   6.0003331135096791E-003
   6.0002763337304050E-003
   6.0001709100080403E-003
   6.0001659859709733E-003
   6.0000306879060949E-003
   6.0000572537979970E-003
   5.9999508914577162E-003
   5.9998802371091899E-003
   5.9998135310894577E-003
   5.9997477856833115E-003
   5.9996824093049052E-003
   5.9996172093603750E-003
   5.9995521007973496E-003
   5.9995195744679992E-003
   6.0002800034863061E-003
   6.0002753384696848E-003
   6.0002580750575770E-003
   6.0002556159091322E-003
   6.0002400138628115E-003
   6.0001043409220137E-003
   6.0000018849265362E-003
   6.0000005469160482E-003
   5.9999542328546011E-003
   5.9998898354101590E-003
   5.9998241295824359E-003
   5.9997585702297237E-003
   5.9996932273349212E-003
   5.9996280320316194E-003
   5.9995629300354904E-003
   5.9995195625472605E-003
   1.8000019972318253E-002
   1.8000278766941932E-002
   1.8000250878323975E-002
   1.8000163858971210E-002
   1.8000133363892817E-002
   1.8000047427353068E-002
   1.8000002579814579E-002
   1.7999936366769973E-002
   1.7999869086950872E-002
   1.7999802718916710E-002
   1.7999736976863134E-002
   1.7999671580373893E-002
   1.7999606368032932E-002
   1.7999541264817332E-002
   1.7999519572640451E-002
   1.8000340838792456E-002
   1.8000294480472204E-002
   1.8000283123381193E-002
   1.8000240796701292E-002
   1.8000221285458372E-002
   1.8000144008634533E-002
   1.8000098441056874E-002
   1.8000030954856715E-002
   1.7999949511239739E-002
   1.7999880276324501E-002
   1.7999813603401443E-002
   1.7999747817484545E-002
   1.7999682423604575E-002
   1.7999617208222764E-002
   1.7999552103070998E-002
   1.7999519572993873E-002
   1.8000300563368522E-002
   1.8000317531667795E-002
   1.8000331461456902E-002
   1.8000275179338387E-002
   1.8000172573882686E-002
   1.8000163905313889E-002
   1.8000032647885550E-002
   1.8000054776206406E-002
   1.7999950875807413E-002
   1.7999880235502454E-002
   1.7999813530607676E-002
   1.7999747785511801E-002
   1.7999682408964376E-002
   1.7999617208808712E-002
   1.7999552100654848E-002
   1.7999519573913329E-002
   1.8000279809490202E-002
   1.8000275409221000E-002
   1.8000259446800414E-002
   1.8000256336835101E-002
   1.8000237797857498E-002
   1.8000106148795183E-002
   1.8000004849982102E-002
   1.8000001393933859E-002
   1.7999954236441029E-002
   1.7999889834823431E-002
   1.7999824129114460E-002
   1.7999758570070776E-002
   1.7999693227123106E-002
   1.7999628032004059E-002
   1.7999562929841562E-002
   1.7999519562688845E-002
   3.6000037417126124E-002
   3.6000276660181227E-002
   3.6000249420480808E-002
   3.6000165656468595E-002
   3.6000132623057887E-002
   3.6000048922839450E-002
   3.6000002649678578E-002
   3.5999936359666918E-002
   3.5999869084071864E-002
   3.5999802717581755E-002
   3.5999736976226882E-002
   3.5999671580005450E-002
   3.5999606367833212E-002
   3.5999541264680822E-002
   3.5999519572484533E-002
   3.6000339944274193E-002
   3.6000295353792046E-002
   3.6000284239944259E-002
   3.6000241685537913E-002
   3.6000219046729939E-002
   3.6000143952932502E-002
   3.6000096458028479E-002
   3.6000030082715059E-002
   3.5999949488791767E-002
   3.5999880272190123E-002
   3.5999813601919749E-002
   3.5999747816799939E-002
   3.5999682422558223E-002
   3.5999617207646432E-002
   3.5999552102545435E-002
   3.5999519572540467E-002
   3.6000300407763100E-002
   3.6000316632612876E-002
   3.6000329130673393E-002
   3.6000273555249714E-002
   3.6000174856892851E-002
   3.6000161012300427E-002
   3.6000035392876099E-002
   3.6000051291047962E-002
   3.5999950825995546E-002
   3.5999880230176320E-002
   3.5999813529045278E-002
   3.5999747784788157E-002
   3.5999682408270728E-002
   3.5999617207905822E-002
   3.5999552100376336E-002
   3.5999519573234072E-002
   3.6000279536449381E-002
   3.6000275507886585E-002
   3.6000261355893265E-002
   3.6000257322003244E-002
   3.6000234721648046E-002
   3.6000108677393672E-002
   3.6000009101411545E-002
   3.6000002576117823E-002
   3.5999954245606383E-002
   3.5999889832877260E-002
   3.5999824127774208E-002
   3.5999758569389223E-002
   3.5999693226777506E-002
   3.5999628031735370E-002
   3.5999562929658301E-002
   3.5999519562512544E-002
   6.0000059120187306E-002
   6.0000274334342671E-002
   6.0000247660064947E-002
   6.0000167784136874E-002
   6.0000131730618543E-002
   6.0000050696956332E-002
   6.0000002714351852E-002
   5.9999936342692101E-002
   5.9999869076981363E-002
   5.9999802714354754E-002
   5.9999736974663730E-002
   5.9999671579178064E-002
   5.9999606367388235E-002
   5.9999541264387564E-002
   5.9999519571709937E-002
   6.0000338869058228E-002
   6.0000296598132080E-002
   6.0000285607659319E-002
   6.0000242728810937E-002
   6.0000216342371362E-002
   6.0000143789634558E-002
   6.0000094049143256E-002
   6.0000028939231211E-002
   5.9999949437828555E-002
   5.9999880262232026E-002
   5.9999813598426752E-002
   5.9999747815183732E-002
   5.9999682420902603E-002
   5.9999617206684085E-002
   5.9999552101749017E-002
   5.9999519571811974E-002
   6.0000300184314147E-002
   6.0000315523511309E-002
   6.0000326278149711E-002
   6.0000271573704453E-002
   6.0000177541920274E-002
   6.0000157541995468E-002
   6.0000038719262468E-002
   6.0000047041554753E-002
   5.9999950716975142E-002
   5.9999880217592852E-002
   5.9999813525322680E-002
   5.9999747783106593E-002
   5.9999682407002361E-002
   5.9999617206535648E-002
   5.9999552099693897E-002
   5.9999519572191670E-002
   6.0000279202520046E-002
   6.0000275626044035E-002
   6.0000263648326987E-002
   6.0000258474103972E-002
   6.0000231036204631E-002
   6.0000111738332966E-002
   6.0000014423736370E-002
   6.0000004000638367E-002
   5.9999954261801672E-002
   5.9999889827951201E-002
   5.9999824124858415E-002
   5.9999758567830602E-002
   5.9999693225929393E-002
   5.9999628031084030E-002
   5.9999562929303162E-002
   5.9999519562131523E-002
   9.0000083927606292E-002
   9.0000272111271915E-002
   9.0000245727703057E-002
   9.0000170062543891E-002
   9.0000130747376617E-002
   9.0000052600788458E-002
   9.0000002752723379E-002
   8.9999936309736156E-002
   8.9999869063017685E-002
   8.9999802708129198E-002
   8.9999736971593330E-002
   8.9999671577559420E-002
   8.9999606366245502E-002
   8.9999541263566976E-002
   8.9999519570914316E-002
   9.0000337701106381E-002
   9.0000298255873135E-002
   9.0000287149879690E-002
   9.0000243834944815E-002
   9.0000213359440015E-002
   9.0000143471030455E-002
   9.0000091372460539E-002
   9.0000027547722766E-002
   8.9999949343884611E-002
   8.9999880242974867E-002
   8.9999813591531641E-002
   8.9999747811997766E-002
   8.9999682418296964E-002
   8.9999617205122506E-002
   8.9999552100628058E-002
   8.9999519570745451E-002
   9.0000299888176927E-002
   9.0000314272370457E-002
   9.0000323083774841E-002
   9.0000269360098112E-002
   9.0000180394404217E-002
   9.0000153752364795E-002
   9.0000042399878480E-002
   9.0000042301968883E-002
   8.9999950524802891E-002
   8.9999880193333534E-002
   8.9999813518176888E-002
   8.9999747779930236E-002
   8.9999682404838396E-002
   8.9999617204534157E-002
   8.9999552098679367E-002
   8.9999519570718806E-002
   9.0000278827569488E-002
   9.0000275754036227E-002
   9.0000266152773650E-002
   9.0000259688359008E-002
   9.0000227014505566E-002
   9.0000115123628613E-002
   9.0000020557025801E-002
   9.0000005564239094E-002
   8.9999954284240541E-002
   8.9999889818130369E-002
   8.9999824119213201E-002
   8.9999758564822521E-002
   8.9999693224215430E-002
   8.9999628030007869E-002
   8.9999562928532797E-002
   8.9999519561433858E-002
  0.12000010632747612     
  0.12000027055237017     
  0.12000024406434731     
  0.12000017197631734     
  0.12000012989039321     
  0.12000005420159904     
  0.12000000275032921     
  0.11999993626383477     
  0.11999986904338317     
  0.11999980269931937     
  0.11999973696724126     
  0.11999967157508522     
  0.11999960636473322     
  0.11999954126248132     
  0.11999951956983967     
  0.12000033671635219     
  0.12000030000828846     
  0.12000028853781006     
  0.12000024475715675     
  0.12000021075392645     
  0.12000014305814309     
  0.12000008901486185     
  0.12000002620510677     
  0.11999994922082273     
  0.11999988021623735     
  0.11999981358198562     
  0.11999974780748895     
  0.11999968241513183     
  0.11999961720322709     
  0.11999955209915586     
  0.11999951956942764     
  0.12000029958416263     
  0.12000031315962287     
  0.12000032025384229     
  0.12000026740006356     
  0.12000018277500894     
  0.12000015048279780     
  0.12000004562127620     
  0.12000003811679741     
  0.11999995028513631     
  0.11999988016009996     
  0.11999981350819830     
  0.11999974777551489     
  0.11999968240199234     
  0.11999961720230046     
  0.11999955209740999     
  0.11999951956907791     
  0.12000027849235120     
  0.12000027586219614     
  0.12000026831401467     
  0.12000026069333362     
  0.12000022353563379     
  0.12000011809042473     
  0.12000002616864663     
  0.12000000691594327     
  0.11999995430319590     
  0.11999988980408169     
  0.11999982411139631     
  0.11999975856072440     
  0.11999969322191897     
  0.11999962802856953     
  0.11999956292752201     
  0.11999951956055327     
  0.18000014534935047     
  0.18000026890295603     
  0.18000024139447388     
  0.18000017491230133     
  0.18000012844852151     
  0.18000005665258931     
  0.18000000261727428     
  0.17999993613325907     
  0.17999986898826523     
  0.17999980267489823     
  0.17999973695522831     
  0.17999967156833629     
  0.17999960636065135     
  0.17999954125953105     
  0.17999951956717017     
  0.18000033518613273     
  0.18000030356307090     
  0.18000029092934960     
  0.18000024614190493     
  0.18000020651077581     
  0.18000014202998391     
  0.18000008512196483     
  0.18000002368067944     
  0.17999994889996837     
  0.17999988014153487     
  0.17999981355490347     
  0.17999974779491179     
  0.17999968240698147     
  0.17999961719831711     
  0.17999955209566312     
  0.17999951956619167     
  0.18000029897091141     
  0.18000031131496322     
  0.18000031555986837     
  0.18000026414011208     
  0.18000018634565218     
  0.18000014527439664     
  0.18000005087106263     
  0.18000003119655353     
  0.17999994969965549     
  0.17999988006836240     
  0.17999981348001740     
  0.17999974776292499     
  0.17999968239445505     
  0.17999961719679777     
  0.17999955209401980     
  0.17999951956531526     
  0.18000027793316253     
  0.18000027603390023     
  0.18000027172347244     
  0.18000026215884676     
  0.18000021804379399     
  0.18000012292803333     
  0.18000003586560723     
  0.18000000911175210     
  0.17999995433663221     
  0.17999988976466705     
  0.17999982408906318     
  0.17999975854890121     
  0.17999969321516496     
  0.17999962802425246     
  0.17999956292459296     
  0.17999951955782681     
  0.24000017734903997     
  0.24000026879446154     
  0.24000023946109050     
  0.24000017696198808     
  0.24000012729227910     
  0.24000005833988139     
  0.24000000236880231     
  0.23999993595651736     
  0.23999986891187222     
  0.23999980264051463     
  0.23999973693820928     
  0.23999967155876831     
  0.23999960635480358     
  0.23999954125543912     
  0.23999951956343310     
  0.24000033418522657     
  0.24000030718648405     
  0.24000029296640116     
  0.24000024710559162     
  0.24000020321486107     
  0.24000014088562274     
  0.24000008204153914     
  0.24000002138741705     
  0.23999994850871473     
  0.23999988004119896     
  0.23999981351764638     
  0.23999974777751365     
  0.23999968239653321     
  0.23999961719192067     
  0.23999955209113302     
  0.23999951956206433     
  0.24000029840759754     
  0.24000030989459728     
  0.24000031187338927     
  0.24000026154764731     
  0.24000018879665144     
  0.24000014135847181     
  0.24000005492365384     
  0.24000002574883683     
  0.23999994904405395     
  0.23999987994811053     
  0.23999981344146412     
  0.23999974774561483     
  0.23999968238450273     
  0.23999961719000901     
  0.23999955208959514     
  0.23999951956082322     
  0.24000027748319785     
  0.24000027616023703     
  0.24000027425810821     
  0.24000026312884634     
  0.24000021388727341     
  0.24000012669412824     
  0.24000004394996255     
  0.24000001076297731     
  0.23999995433266424     
  0.23999988970838851     
  0.23999982405826559     
  0.23999975853281436     
  0.23999969320604245     
  0.23999962801847530     
  0.23999956292063285     
  0.23999951955437276     
  0.39000023591434047     
  0.39000027219463235     
  0.39000023682036805     
  0.39000017945055993     
  0.39000012509513488     
  0.39000006023573003     
  0.39000000128010992     
  0.38999993533229277     
  0.38999986864193581     
  0.38999980251838429     
  0.38999973687744116     
  0.38999967152501919     
  0.38999960633419772     
  0.38999954124088448     
  0.38999951955037998     
  0.39000033325783573     
  0.39000031535536006     
  0.39000029697158106     
  0.39000024827994628     
  0.39000019801645669     
  0.39000013794927652     
  0.39000007697360201     
  0.39000001666533002     
  0.38999994732726473     
  0.38999987969243122     
  0.38999981338277534     
  0.38999974771380180     
  0.38999968236031918     
  0.38999961716974291     
  0.38999955207550702     
  0.38999951954807272     
  0.39000029728487373     
  0.39000030787359236     
  0.39000030610079317     
  0.39000025728950921     
  0.39000019152288984     
  0.39000013566165037     
  0.39000006111310814     
  0.39000001702528447     
  0.38999994730872778     
  0.38999987954610754     
  0.38999981330282446     
  0.38999974768200135     
  0.38999968234904259     
  0.38999961716719123     
  0.38999955207415726     
  0.38999951954639067     
  0.39000027676428034     
  0.39000027636223950     
  0.39000027768951634     
  0.39000026401211402     
  0.39000020802486901     
  0.39000013257622390     
  0.39000005784505271     
  0.39000001331140116     
  0.38999995421408190     
  0.38999988950640968     
  0.38999982394509364     
  0.38999975847236162     
  0.38999969317168404     
  0.38999962799696924     
  0.38999956290568338     
  0.38999951954135731     
  0.54000027300724185     
  0.54000027758385394     
  0.54000023604653358     
  0.54000018027596619     
  0.54000012347962645     
  0.54000006053738003     
  0.54000000000137549     
  0.53999993456578499     
  0.53999986828182589     
  0.53999980234718992     
  0.53999973679017033     
  0.53999967147631078     
  0.53999960630442922     
  0.53999954121984495     
  0.53999951953135961     
  0.54000033375361822     
  0.54000032239492934     
  0.54000030023775847     
  0.54000024884126718     
  0.54000019498073781     
  0.54000013548244907     
  0.54000007380446480     
  0.54000001313318291     
  0.53999994609875990     
  0.53999987925710113     
  0.53999981320025991     
  0.53999974762479863     
  0.53999968231064521     
  0.53999961713931921     
  0.53999955205407668     
  0.53999951952908543     
  0.54000029676546490     
  0.54000030717777947     
  0.54000030306529734     
  0.54000025476318403     
  0.54000019226304763     
  0.54000013269347003     
  0.54000006440277715     
  0.54000001194995784     
  0.53999994574938082     
  0.53999987907275149     
  0.53999981311814149     
  0.53999974759351321     
  0.53999968229989082     
  0.53999961713649203     
  0.53999955205281636     
  0.53999951952730985     
  0.54000027646335513     
  0.54000027658655803     
  0.54000027930732719     
  0.54000026406334845     
  0.54000020493435319     
  0.54000013588839435     
  0.54000006648407806     
  0.54000001455205882     
  0.53999995389337196     
  0.53999988922404973     
  0.53999982378954481     
  0.53999975838873948     
  0.53999969312405005     
  0.53999962796740020     
  0.53999956288503226     
  0.53999951952347036     
  0.84000031216584847     
  0.84000028784651559     
  0.84000023685567038     
  0.84000018008239519     
  0.84000012109212185     
  0.84000005924896615     
  0.83999999737859132     
  0.83999993285861019     
  0.83999986740116628     
  0.83999980190357215     
  0.83999973655651816     
  0.83999967134429032     
  0.83999960622313719     
  0.83999954116227282     
  0.83999951947973950     
  0.84000033655003936     
  0.84000033213086589     
  0.84000030539283765     
  0.84000024955985231     
  0.84000019221054867     
  0.84000013220607428     
  0.84000007038996483     
  0.84000000872702318     
  0.83999994387290455     
  0.83999987826263400     
  0.83999981273273017     
  0.83999974738510663     
  0.83999968217594301     
  0.83999961705638182     
  0.83999955199555476     
  0.83999951947745344     
  0.84000029714933788     
  0.84000030800884173     
  0.84000030147859439     
  0.84000025263186995     
  0.84000019172205431     
  0.84000013042114763     
  0.84000006653046155     
  0.84000000741413772     
  0.83999994339100359     
  0.83999987806549636     
  0.83999981265423673     
  0.83999974735595340     
  0.83999968216595777     
  0.83999961705343140     