# vtk DataFile Version 2.0
3D Unstructured Grid of Linear Triangles
ASCII
DATASET UNSTRUCTURED_GRID
FIELD FieldData  1
TIME 1 1 double
        3600.00000
POINTS     7056 float
      0.00000000E+00  1.00000000E+01  1.00000000E+00
      5.00000000E-01  1.00000000E+01  9.93333333E-01
      1.00000000E+00  1.00000000E+01  9.83333333E-01
      1.50000000E+00  1.00000000E+01  9.73333333E-01
      2.00000000E+00  1.00000000E+01  9.63333333E-01
      2.50000000E+00  1.00000000E+01  9.53333333E-01
      3.00000000E+00  1.00000000E+01  9.43333333E-01
      3.50000000E+00  1.00000000E+01  9.33333333E-01
      4.00000000E+00  1.00000000E+01  9.23333333E-01
      4.50000000E+00  1.00000000E+01  9.13333333E-01
      5.00000000E+00  1.00000000E+01  9.03333333E-01
      5.50000000E+00  1.00000000E+01  8.93333333E-01
      6.00000000E+00  1.00000000E+01  8.83333333E-01
      6.50000000E+00  1.00000000E+01  8.73333333E-01
      7.00000000E+00  1.00000000E+01  8.63333333E-01
      7.50000000E+00  1.00000000E+01  8.53333333E-01
      8.00000000E+00  1.00000000E+01  8.43333333E-01
      8.50000000E+00  1.00000000E+01  8.33333333E-01
      9.00000000E+00  1.00000000E+01  8.23333333E-01
      9.50000000E+00  1.00000000E+01  8.13333333E-01
      1.00000000E+01  1.00000000E+01  8.10000000E-01
      0.00000000E+00  9.50000000E+00  9.83333333E-01
      5.00000000E-01  9.50000000E+00  9.82500000E-01
      1.00000000E+00  9.50000000E+00  9.72500000E-01
      1.50000000E+00  9.50000000E+00  9.62500000E-01
      2.00000000E+00  9.50000000E+00  9.52500000E-01
      2.50000000E+00  9.50000000E+00  9.42500000E-01
      3.00000000E+00  9.50000000E+00  9.32500000E-01
      3.50000000E+00  9.50000000E+00  9.22500000E-01
      4.00000000E+00  9.50000000E+00  9.12500000E-01
      4.50000000E+00  9.50000000E+00  9.02500000E-01
      5.00000000E+00  9.50000000E+00  8.92500000E-01
      5.50000000E+00  9.50000000E+00  8.82500000E-01
      6.00000000E+00  9.50000000E+00  8.72500000E-01
      6.50000000E+00  9.50000000E+00  8.62500000E-01
      7.00000000E+00  9.50000000E+00  8.52500000E-01
      7.50000000E+00  9.50000000E+00  8.42500000E-01
      8.00000000E+00  9.50000000E+00  8.32500000E-01
      8.50000000E+00  9.50000000E+00  8.22500000E-01
      9.00000000E+00  9.50000000E+00  8.12500000E-01
      9.50000000E+00  9.50000000E+00  8.02500000E-01
      1.00000000E+01  9.50000000E+00  8.01666667E-01
      0.00000000E+00  9.00000000E+00  9.58333333E-01
      5.00000000E-01  9.00000000E+00  9.57500000E-01
      1.00000000E+00  9.00000000E+00  9.47500000E-01
      1.50000000E+00  9.00000000E+00  9.37500000E-01
      2.00000000E+00  9.00000000E+00  9.27500000E-01
      2.50000000E+00  9.00000000E+00  9.17500000E-01
      3.00000000E+00  9.00000000E+00  9.07500000E-01
      3.50000000E+00  9.00000000E+00  8.97500000E-01
      4.00000000E+00  9.00000000E+00  8.87500000E-01
      4.50000000E+00  9.00000000E+00  8.77500000E-01
      5.00000000E+00  9.00000000E+00  8.67500000E-01
      5.50000000E+00  9.00000000E+00  8.57500000E-01
      6.00000000E+00  9.00000000E+00  8.47500000E-01
      6.50000000E+00  9.00000000E+00  8.37500000E-01
      7.00000000E+00  9.00000000E+00  8.27500000E-01
      7.50000000E+00  9.00000000E+00  8.17500000E-01
      8.00000000E+00  9.00000000E+00  8.07500000E-01
      8.50000000E+00  9.00000000E+00  7.97500000E-01
      9.00000000E+00  9.00000000E+00  7.87500000E-01
      9.50000000E+00  9.00000000E+00  7.77500000E-01
      1.00000000E+01  9.00000000E+00  7.76666667E-01
      0.00000000E+00  8.50000000E+00  9.33333333E-01
      5.00000000E-01  8.50000000E+00  9.32500000E-01
      1.00000000E+00  8.50000000E+00  9.22500000E-01
      1.50000000E+00  8.50000000E+00  9.12500000E-01
      2.00000000E+00  8.50000000E+00  9.02500000E-01
      2.50000000E+00  8.50000000E+00  8.92500000E-01
      3.00000000E+00  8.50000000E+00  8.82500000E-01
      3.50000000E+00  8.50000000E+00  8.72500000E-01
      4.00000000E+00  8.50000000E+00  8.62500000E-01
      4.50000000E+00  8.50000000E+00  8.52500000E-01
      5.00000000E+00  8.50000000E+00  8.42500000E-01
      5.50000000E+00  8.50000000E+00  8.32500000E-01
      6.00000000E+00  8.50000000E+00  8.22500000E-01
      6.50000000E+00  8.50000000E+00  8.12500000E-01
      7.00000000E+00  8.50000000E+00  8.02500000E-01
      7.50000000E+00  8.50000000E+00  7.92500000E-01
      8.00000000E+00  8.50000000E+00  7.82500000E-01
      8.50000000E+00  8.50000000E+00  7.72500000E-01
      9.00000000E+00  8.50000000E+00  7.62500000E-01
      9.50000000E+00  8.50000000E+00  7.52500000E-01
      1.00000000E+01  8.50000000E+00  7.51666667E-01
      0.00000000E+00  8.00000000E+00  9.08333333E-01
      5.00000000E-01  8.00000000E+00  9.07500000E-01
      1.00000000E+00  8.00000000E+00  8.97500000E-01
      1.50000000E+00  8.00000000E+00  8.87500000E-01
      2.00000000E+00  8.00000000E+00  8.77500000E-01
      2.50000000E+00  8.00000000E+00  8.67500000E-01
      3.00000000E+00  8.00000000E+00  8.57500000E-01
      3.50000000E+00  8.00000000E+00  8.47500000E-01
      4.00000000E+00  8.00000000E+00  8.37500000E-01
      4.50000000E+00  8.00000000E+00  8.27500000E-01
      5.00000000E+00  8.00000000E+00  8.17500000E-01
      5.50000000E+00  8.00000000E+00  8.07500000E-01
      6.00000000E+00  8.00000000E+00  7.97500000E-01
      6.50000000E+00  8.00000000E+00  7.87500000E-01
      7.00000000E+00  8.00000000E+00  7.77500000E-01
      7.50000000E+00  8.00000000E+00  7.67500000E-01
      8.00000000E+00  8.00000000E+00  7.57500000E-01
      8.50000000E+00  8.00000000E+00  7.47500000E-01
      9.00000000E+00  8.00000000E+00  7.37500000E-01
      9.50000000E+00  8.00000000E+00  7.27500000E-01
      1.00000000E+01  8.00000000E+00  7.26666667E-01
      0.00000000E+00  7.50000000E+00  8.83333333E-01
      5.00000000E-01  7.50000000E+00  8.82500000E-01
      1.00000000E+00  7.50000000E+00  8.72500000E-01
      1.50000000E+00  7.50000000E+00  8.62500000E-01
      2.00000000E+00  7.50000000E+00  8.52500000E-01
      2.50000000E+00  7.50000000E+00  8.42500000E-01
      3.00000000E+00  7.50000000E+00  8.32500000E-01
      3.50000000E+00  7.50000000E+00  8.22500000E-01
      4.00000000E+00  7.50000000E+00  8.12500000E-01
      4.50000000E+00  7.50000000E+00  8.02500000E-01
      5.00000000E+00  7.50000000E+00  7.92500000E-01
      5.50000000E+00  7.50000000E+00  7.82500000E-01
      6.00000000E+00  7.50000000E+00  7.72500000E-01
      6.50000000E+00  7.50000000E+00  7.62500000E-01
      7.00000000E+00  7.50000000E+00  7.52500000E-01
      7.50000000E+00  7.50000000E+00  7.42500000E-01
      8.00000000E+00  7.50000000E+00  7.32500000E-01
      8.50000000E+00  7.50000000E+00  7.22500000E-01
      9.00000000E+00  7.50000000E+00  7.12500000E-01
      9.50000000E+00  7.50000000E+00  7.02500000E-01
      1.00000000E+01  7.50000000E+00  7.01666667E-01
      0.00000000E+00  7.00000000E+00  8.58333333E-01
      5.00000000E-01  7.00000000E+00  8.57500000E-01
      1.00000000E+00  7.00000000E+00  8.47500000E-01
      1.50000000E+00  7.00000000E+00  8.37500000E-01
      2.00000000E+00  7.00000000E+00  8.27500000E-01
      2.50000000E+00  7.00000000E+00  8.17500000E-01
      3.00000000E+00  7.00000000E+00  8.07500000E-01
      3.50000000E+00  7.00000000E+00  7.97500000E-01
      4.00000000E+00  7.00000000E+00  7.87500000E-01
      4.50000000E+00  7.00000000E+00  7.77500000E-01
      5.00000000E+00  7.00000000E+00  7.67500000E-01
      5.50000000E+00  7.00000000E+00  7.57500000E-01
      6.00000000E+00  7.00000000E+00  7.47500000E-01
      6.50000000E+00  7.00000000E+00  7.37500000E-01
      7.00000000E+00  7.00000000E+00  7.27500000E-01
      7.50000000E+00  7.00000000E+00  7.17500000E-01
      8.00000000E+00  7.00000000E+00  7.07500000E-01
      8.50000000E+00  7.00000000E+00  6.97500000E-01
      9.00000000E+00  7.00000000E+00  6.87500000E-01
      9.50000000E+00  7.00000000E+00  6.77500000E-01
      1.00000000E+01  7.00000000E+00  6.76666667E-01
      0.00000000E+00  6.50000000E+00  8.33333333E-01
      5.00000000E-01  6.50000000E+00  8.32500000E-01
      1.00000000E+00  6.50000000E+00  8.22500000E-01
      1.50000000E+00  6.50000000E+00  8.12500000E-01
      2.00000000E+00  6.50000000E+00  8.02500000E-01
      2.50000000E+00  6.50000000E+00  7.92500000E-01
      3.00000000E+00  6.50000000E+00  7.82500000E-01
      3.50000000E+00  6.50000000E+00  7.72500000E-01
      4.00000000E+00  6.50000000E+00  7.62500000E-01
      4.50000000E+00  6.50000000E+00  7.52500000E-01
      5.00000000E+00  6.50000000E+00  7.42500000E-01
      5.50000000E+00  6.50000000E+00  7.32500000E-01
      6.00000000E+00  6.50000000E+00  7.22500000E-01
      6.50000000E+00  6.50000000E+00  7.12500000E-01
      7.00000000E+00  6.50000000E+00  7.02500000E-01
      7.50000000E+00  6.50000000E+00  6.92500000E-01
      8.00000000E+00  6.50000000E+00  6.82500000E-01
      8.50000000E+00  6.50000000E+00  6.72500000E-01
      9.00000000E+00  6.50000000E+00  6.62500000E-01
      9.50000000E+00  6.50000000E+00  6.52500000E-01
      1.00000000E+01  6.50000000E+00  6.51666667E-01
      0.00000000E+00  6.00000000E+00  8.08333333E-01
      5.00000000E-01  6.00000000E+00  8.07500000E-01
      1.00000000E+00  6.00000000E+00  7.97500000E-01
      1.50000000E+00  6.00000000E+00  7.87500000E-01
      2.00000000E+00  6.00000000E+00  7.77500000E-01
      2.50000000E+00  6.00000000E+00  7.67500000E-01
      3.00000000E+00  6.00000000E+00  7.57500000E-01
      3.50000000E+00  6.00000000E+00  7.47500000E-01
      4.00000000E+00  6.00000000E+00  7.37500000E-01
      4.50000000E+00  6.00000000E+00  7.27500000E-01
      5.00000000E+00  6.00000000E+00  7.17500000E-01
      5.50000000E+00  6.00000000E+00  7.07500000E-01
      6.00000000E+00  6.00000000E+00  6.97500000E-01
      6.50000000E+00  6.00000000E+00  6.87500000E-01
      7.00000000E+00  6.00000000E+00  6.77500000E-01
      7.50000000E+00  6.00000000E+00  6.67500000E-01
      8.00000000E+00  6.00000000E+00  6.57500000E-01
[...]
POINT_DATA     7056
SCALARS pressure float
LOOKUP_TABLE default
 -0.19644827907241597     
 -0.19509400493455198     
 -0.19490792942509369     
 -0.19473418550488852     
 -0.19454941826414301     
 -0.19438966847841735     
 -0.19423564357532244     
 -0.19409474924783754     
 -0.19394774970342601     
 -0.19379445273491419     
 -0.19363989719593960     
 -0.19346241066652400     
 -0.19324628987407622     
 -0.19298438929855488     
 -0.19264179426624417     
 -0.19220276219307808     
 -0.19162241371780619     
 -0.19081576993810268     
 -0.19010061367473072     
 -0.18725206473896805     
 -0.18709018111828146     
 -0.19432704316441779     
 -0.19304181086669597     
 -0.19211400216701044     
 -0.19235650755715070     
 -0.19235248657558091     
 -0.19236087650053108     
 -0.19234910094457583     
 -0.19232718039540558     
 -0.19227389541583373     
 -0.19219949744967377     
 -0.19208834825349991     
 -0.19192290697560993     
 -0.19169359332839928     
 -0.19138335269818380     
 -0.19096183590244517     
 -0.19039794375995275     
 -0.18963968343567519     
 -0.18861905089206696     
 -0.18748463336795632     
 -0.18463526656574963     
 -0.18479685302009102     
 -0.19347647437542484     
 -0.19220680050999978     
 -0.19093547981448572     
 -0.19117335064700028     
 -0.19094622139370834     
 -0.19075789920379180     
 -0.19055739683074824     
 -0.19033226377338752     
 -0.19008126405228076     
 -0.18978564785731458     
 -0.18943105290010789     
 -0.18900222544796680     
 -0.18847923743415881     
 -0.18782783561516692     
 -0.18701174480234295     
 -0.18598408013702994     
 -0.18469806546501694     
 -0.18308270064969723     
 -0.18126705715388508     
 -0.17772386596095496     
 -0.17689201124363468     
 -0.19281815806023728     
 -0.19225816721998060     
 -0.19073145761396257     
 -0.19087932280444478     
 -0.19051280555842878     
 -0.19018746100173306     
 -0.18981937579431418     
 -0.18940505732141710     
 -0.18893318159626918     
 -0.18838616019101889     
 -0.18774222446850530     
 -0.18697751718158370     
 -0.18606208466023388     
 -0.18495613875559391     
 -0.18361671363290011     
 -0.18199720301871453     
 -0.18005046662437185     
 -0.17772611116874787     
 -0.17512911445516421     
 -0.17082463646212157     
 -0.17004803284958012     
 -0.19205573852863536     
 -0.19185139592300240     
 -0.18995580546285384     
 -0.18991016339021666     
 -0.18935984503261344     
 -0.18881923148061716     
 -0.18821593855759253     
 -0.18754107263582639     
 -0.18677282014117783     
 -0.18589361358686085     
 -0.18487440178587827     
 -0.18368199136820609     
 -0.18228101083302403     
 -0.18062915752050157     
 -0.17868674222488568     
 -0.17641735801432867     
 -0.17377943294276690     
 -0.17071947214210176     
 -0.16729305568181344     
 -0.16217883976923578     
 -0.16138985001062317     
 -0.19112480802099549     
 -0.19114285903688449     
 -0.18891487683276162     
 -0.18859149233262279     
 -0.18778762828808768     
 -0.18695073476107965     
 -0.18602653948441328     
 -0.18499492005061616     
 -0.18383183799899852     
 -0.18251123574544806     
 -0.18100005364422372     
 -0.17926474761494862     
 -0.17727424525216176     
 -0.17499568134377744     
 -0.17238584873006499     
 -0.16939914464891850     
 -0.16598726109040784     
 -0.16209257395954252     
 -0.15771945814627725     
 -0.15171396631771675     
 -0.15101563308319887     
 -0.18986926993494449     
 -0.18996972695650452     
 -0.18740764855902603     
 -0.18671230828937130     
 -0.18555904388284175     
 -0.18433614274436819     
 -0.18298791332606457     
 -0.18148987137787548     
 -0.17981682615217076     
 -0.17794408583997959     
 -0.17584748618007592     
 -0.17349651990598594     
 -0.17085233274569941     
 -0.16787393083018545     
 -0.16451443490533396     
 -0.16072134226919449     
 -0.15642411593053629     
 -0.15158122310261463     
 -0.14629903714980677     
 -0.13968805683635249     
 -0.13907238740219266     
 -0.18808873245689478     
 -0.18816588075010568     
 -0.18523046015175137     
 -0.18404740757586266     
 -0.18243506762372874     
 -0.18070491169518610     
 -0.17881075300324697     
 -0.17673776420565049     
 -0.17446742817707545     
 -0.17197144804992295     
 -0.16921827837123740     
 -0.16617219563873223     
 -0.16279137443562575     
 -0.15902421609383185     
 -0.15480411874861943     
 -0.15013681389257549     
 -0.14505994010454554     
 -0.13953852562360064     
 -0.13356187527829413     
 -0.12642857026876278     
 -0.12581572477720712     
 -0.18551027763264438     
 -0.18548501619879595     
 -0.18209734981576470     
 -0.18028768348562341     
 -0.17808740476517054     
 -0.17574154528435801     
 -0.17321654789643479     
 -0.17049116866591080     
 -0.16754082903560141     
 -0.16433609902163981     
 -0.16084101415465774     
 -0.15700278229377926     
 -0.15278215610517165     
 -0.14822878943513101     
 -0.14333401357800313     
 -0.13806191496522213     
 -0.13237945668384629     
 -0.12624509844812770     
 -0.11966652028578277     
 -0.11195165047006733     
 -0.11132051951724525     
 -0.18177066179172097     
 -0.18157343841607210     
 -0.17764135714956586     
 -0.17509710749699323     
 -0.17221481649645948     
 -0.16916197543794062     
 -0.16591134479598596     
 -0.16244042659265961     
 -0.15871464924922601     
 -0.15468994427515473     
 -0.15039235680212812     
 -0.14585574195363823     
 -0.14104936978536844     
 -0.13594545975472286     
 -0.13050707859626434     
 -0.12470156952921464     
 -0.11851872470441274     
 -0.11169778698981170     
 -0.10423531134124532     
  -9.5920221460849053E-002
  -9.5267243721506897E-002
 -0.17647441852845067     
 -0.17606260471952101     
 -0.17153330703928768     
 -0.16814893432528247     
 -0.16447175853644030     
 -0.16060612406276450     
 -0.15651234842312839     
 -0.15219022169893315     
 -0.14771063018191569     
 -0.14306411117078799     
 -0.13822655983585616     
 -0.13317378628501644     
 -0.12787015423687723     
 -0.12231132527969996     
 -0.11644343399699408     
 -0.10996843168041390     
 -0.10303524550002517     
  -9.5676593716839051E-002
  -8.7947946538882077E-002
  -7.9169568102007565E-002
  -7.8518039784304106E-002
 -0.16921263289229840     
 -0.16861101328480971     
 -0.16337582116593638     
 -0.15903134302075667     
 -0.15441668486506055     
 -0.14968311835625367     
 -0.14487120993948727     
 -0.13996389113609983     
 -0.13494801472170243     
 -0.12979842415821771     
 -0.12450631900794462     
 -0.11906259513518853     
 -0.11328621754783000     
 -0.10708951604967221     
 -0.10059706490517467     
  -9.3826613443445644E-002
  -8.6726984105976748E-002
  -7.8967317114319313E-002
  -7.0708969398532592E-002
  -6.1895714975455887E-002
  -6.1350832648774500E-002
 -0.15947197406751917     
 -0.15879381196855558     
 -0.15269231985160123     
 -0.14741668651855327     
 -0.14209176359552486     
 -0.13674779218321936     
 -0.13137440783319465     
 -0.12596582877270790     
 -0.12053530464843817     
 -0.11498091469996255     
 -0.10909079205871086     
 -0.10305425744717600     
  -9.6884992486386295E-002
  -9.0600892054259211E-002
  -8.3945374625738839E-002
  -7.6915810226245454E-002
  -6.9520518364838899E-002
  -6.1828984525045920E-002
  -5.3634226757805013E-002
  -4.4762535139912657E-002
  -4.4270105899598795E-002
 -0.14698695552333590     
 -0.14636301275140109     
 -0.13968850681444406     
 -0.13372324010136163     
 -0.12779412261177250     
 -0.12194943164563227     
 -0.11613959301012974     
 -0.11010759569724843     
 -0.10405220315271083     
  -9.8024476826355206E-002
  -9.2023870181661638E-002
  -8.5926003135085346E-002
  -7.9576364451318590E-002
  -7.3081633016801859E-002
  -6.6437634183727515E-002
  -5.9707399594797012E-002
  -5.2443348845757673E-002
  -4.4778037087048583E-002
  -3.6711121988070465E-002
  -2.8226614845201635E-002
  -2.7950713672454899E-002
 -0.13239302446774046     
 -0.13178118505681391     
 -0.12463844506952911     
 -0.11813691348306510     
 -0.11154273288714386     
 -0.10495460857434172     
  -9.8522169498735962E-002
  -9.2278750542291704E-002
  -8.6127443800070425E-002
  -7.9907741451978584E-002
  -7.3737425314847269E-002
  -6.7617278680650927E-002
  -6.1547068567826844E-002
  -5.5368745103770357E-002
  -4.8966767210736402E-002
  -4.2349828868688190E-002
  -3.5453520868898761E-002
  -2.8150187038846829E-002
  -2.0068197954584477E-002
  -1.2765466525147408E-002
  -1.2926820372461723E-002
 -0.11595138195948347     
 -0.11533154252955680     
 -0.10744679009165638     
 -0.10010615585972442     
  -9.3077222247257160E-002
  -8.6257128921844714E-002
  -7.9449204222300146E-002
  -7.2872417800605188E-002
  -6.6654028607291096E-002
  -6.0783362053137467E-002
  -5.4957688623397165E-002
  -4.9119401702154251E-002
  -4.3306673829850109E-002
  -3.7492193084810242E-002
  -3.1674087371026477E-002
  -2.5557702034817383E-002
  -1.8744704379420773E-002
  -1.2037623313261889E-002
   4.8171317542783501E-004
   3.5264781884876948E-004
  -8.4221810769597707E-004
  -9.6931769772961363E-002
  -9.6368485034428353E-002
  -8.8309839488647540E-002
  -8.0406726814698307E-002
  -7.2853743727730902E-002
  -6.5782720018334143E-002
  -5.9132668383151232E-002
  -5.2511404692787852E-002
  -4.6469400126675171E-002
  -4.0987583308057830E-002
  -3.5823032694085898E-002
  -3.0610019281149967E-002
  -2.5325193299530483E-002
  -1.9771418191841920E-002
  -1.4930728055886924E-002
  -9.6215753539808362E-003
   4.6985468078708840E-004
   1.7034893838064203E-003
   3.9895527940260050E-003
   3.4255347922196805E-003
   1.2923253274462203E-003
  -7.6227868797325321E-002
  -7.5661266143254954E-002
  -6.7098069718368611E-002
  -5.9207052139537135E-002
  -5.1544407692761737E-002
  -4.4446086760450774E-002
  -3.7789127771217679E-002
  -3.0856877860052041E-002
  -2.5276028985825816E-002
  -2.0788979500874553E-002
  -1.6714875251595863E-002
  -1.2629330523160577E-002
  -8.0550293907109272E-003
   4.1490455707940974E-004
   1.5007570307186910E-003
   2.5864742739543714E-003
   3.9375843453052358E-003
   5.6638981584794463E-003
   8.6076433170921684E-003
   7.6913132474462041E-003
   4.3995634307156433E-003
  -5.4093290279600977E-002
  -5.3560933182979421E-002
  -4.4762342457301249E-002
  -3.6806264822316158E-002
  -2.9399142185764823E-002
  -2.2501619163600405E-002
  -1.6108173763683672E-002
  -3.3265197649446688E-003
   9.2066595127467262E-004
   2.0406275213847211E-003
   3.0407133081382979E-003
   4.0231730018785786E-003
   4.9598217666284626E-003
   6.0484396358173520E-003
   7.6270626503617753E-003
   9.2738978612945493E-003
   1.0843039428490088E-002
   1.2125399672209139E-002
   1.4189106077337522E-002
   1.1366314457702035E-002
   6.9658645908593254E-003
  -3.0653869259934390E-002
  -3.0170932286769744E-002
  -2.1472758927591228E-002
  -1.3757117383563944E-002
  -6.9263952217084165E-003
   8.9880508174017553E-004
   2.2763681744103845E-003
   3.3284839451159149E-003
   4.4237332903335090E-003
   5.7610141843204002E-003
   6.8697113929670102E-003
   7.9153558214746251E-003
   8.9303187384758391E-003
   9.8482371832474009E-003
   1.0648259306578842E-002
   1.1414620329947656E-002
   1.2191348855012642E-002
   1.2962684392603152E-002
   1.4087268069081593E-002
   1.3581752475982690E-002
   9.6271704165291645E-003
  -2.2799333687925086E-002
  -1.9886133317594770E-002
  -1.1338121178498958E-002
  -4.0093924585851096E-003
   6.9228597235101619E-005
   1.1992612352671702E-003
   3.9567331005014288E-003
   5.9736393701511764E-003
   7.0799386431846540E-003
   7.6022958330184401E-003
   7.9187417707853262E-003
   8.1575584374571405E-003
   8.3706712010428730E-003
   8.5919212098715687E-003
   8.8398374831688553E-003
   9.1298663987902390E-003
   9.4807156198445045E-003
   9.9204736707494256E-003
   1.0552426111148098E-002
   1.1262750638533410E-002
   1.1541632060250389E-002
 -0.19059777652713514     
 -0.18928473772885063     
 -0.18909882095877920     
 -0.18892433549085713     
 -0.18873872413048332     
 -0.18857807127171022     
 -0.18842314271305866     
 -0.18828138325048310     
 -0.18813359905132124     
 -0.18797958851964758     
 -0.18782435594744526     
 -0.18764622362217109     
 -0.18742946184095963     
 -0.18716687189282863     
 -0.18682352001107244     
 -0.18638359795107345     
 -0.18580219850415863     
 -0.18499451037863660     
 -0.18427715870621375     
 -0.18142631226396080     
 -0.18135100594936912     
 -0.18852507570829075     
 -0.18731248824751565     
 -0.18638666914050739     
 -0.18662888184458123     
 -0.18662490255710029     
 -0.18663338097331247     
 -0.18662180190471575     
 -0.18660011476980942     
 -0.18654706006754831     
 -0.18647280512746228     
 -0.18636167215761651     
 -0.18619608356003359     
 -0.18596639518852426     
 -0.18565550247137402     
 -0.18523303335878419     
 -0.18466787364520257     
 -0.18390806388291353     
 -0.18288575395281162     
 -0.18174860088657863     
 -0.17889733184685166     
 -0.17914312692217246     
 -0.18767546236353846     
 -0.18648405535505286     
 -0.18521549616359992     
 -0.18545291969135944     
 -0.18522579347071347     
 -0.18503733309237566     
 -0.18483667739056589     
 -0.18461131662125377     
 -0.18435995923495835     
 -0.18406383198548401     
 -0.18370853334910098     
 -0.18327877038090917     
 -0.18275458831304620     
 -0.18210173713295894     
 -0.18128394815415502     
 -0.18025436766291170     
 -0.17896621118619860     
 -0.17734855432596419     
 -0.17552926908981392     
 -0.17198344925550557     
 -0.17123524246932639     
 -0.18701469772391535     
 -0.18653588608673091     
 -0.18501122198530992     
 -0.18515897798506162     
 -0.18479260240388359     
 -0.18446707613556787     
 -0.18409869987767241     
 -0.18368388974001701     
 -0.18321128796550798     
 -0.18266328404517426     
 -0.18201810320523706     
 -0.18125188861145178     
 -0.18033469173330044     
 -0.17922673837484310     
 -0.17788503536602218     
 -0.17626286655075329     
 -0.17431281601243440     
 -0.17198422670366986     
 -0.16938146069529814     
 -0.16507355426846596     
 -0.16437599666868030     
 -0.18625049411664374     
 -0.18613014090338734     
 -0.18423550209353368     
 -0.18418974879810882     
 -0.18363929781393667     
 -0.18309815278756295     
 -0.18249411772306268     
 -0.18181824036385094     
 -0.18104872156475435     
 -0.18016798988983759     
 -0.17914700739486986     
 -0.17795256406323559     
 -0.17654920202040650     
 -0.17489444490646791     
 -0.17294826238999148     
 -0.17067415493707824     
 -0.16803098314505610     
 -0.16496526448426546     
 -0.16153181004998671     
 -0.15641329849750829     
 -0.15569701462992100     
 -0.18531817177886434     
 -0.18542199826499065     
 -0.18319380386866982     
 -0.18287001246385109     
 -0.18206550599967047     
 -0.18122757928881766     
 -0.18030211233566454     
 -0.17926897870483624     
 -0.17810413680659115     
 -0.17678146669347300     
 -0.17526777875220975     
 -0.17352926086185466     
 -0.17153454933617476     
 -0.16925104187111306     
 -0.16663573527109032     
 -0.16364294706854096     
 -0.16022444195996177     
 -0.15632277159903915     
 -0.15194225909409095     
 -0.14593041868372775     
 -0.14529806262386202     
 -0.18406108852135147     
 -0.18424781258710302     
 -0.18168460103389883     
 -0.18098830619190034     
 -0.17983386824776348     
 -0.17860944925617017     
 -0.17725945306984842     
 -0.17575927986150333     
 -0.17408352775315286     
 -0.17220717251989223     
 -0.17010604008729183     
 -0.16774998985993794     
 -0.16510010711144177     
 -0.16211539773785588     
 -0.15874906397261587     
 -0.15494888205651128     
 -0.15064458935521632     
 -0.14579099629306605     
 -0.14049510682846272     
 -0.13387386590079406     
 -0.13331672072343806     
 -0.18227814255339680     
 -0.18244097204038762     
 -0.17950393142283408     
 -0.17831931519366429     
 -0.17670524580769270     
 -0.17497281536451989     
 -0.17307562607933216     
 -0.17099859038085646     
 -0.16872354051068450     
 -0.16622228203285078     
 -0.16346319782369290     
 -0.16041062538650122     
 -0.15702283230588790     
 -0.15324868638118735     
 -0.14902090698732365     
 -0.14434147035926800     
 -0.13925144551422086     
 -0.13371654917513534     
 -0.12772568901917031     
 -0.12058224499323894     
 -0.12001898369148961     
 -0.17969599122285454     
 -0.17975523279066916     
 -0.17636553076605774     
 -0.17455319815354384     
 -0.17234951409177934     
 -0.16999925855860570     
 -0.16746934587377432     
 -0.16473843197251309     
 -0.16178195368354167     
 -0.15857054623698272     
 -0.15506852987442957     
 -0.15122338930582988     
 -0.14699319092288562     
 -0.14242723312327735     
 -0.13751959226665841     
 -0.13223422767832671     
 -0.12653826656944472     
 -0.12038984293879706     
 -0.11379648966163255     
 -0.10607821769211236     
 -0.10549017424278166     
 -0.17595073306305550     
 -0.17583600556027792     
 -0.17189996605329860     
 -0.16935080417859433     
 -0.16646334992531581     
 -0.16340467192872940     
 -0.16014765177979198     
 -0.15666992168730060     
 -0.15293740378850842     
 -0.14890503504919139     
 -0.14459570943456268     
 -0.14004665806653196     
 -0.13522765532740996     
 -0.13011085468803932     
 -0.12465951734331389     
 -0.11884011552986441     
 -0.11264382809431528     
 -0.10581475283556398     
  -9.8338333864499083E-002
  -9.0012846704997151E-002
  -8.9390848057562741E-002
 -0.17064485513095889     
 -0.17031135602528508     
 -0.16577682333295721     
 -0.16238609702715312     
 -0.15870229426628310     
 -0.15482989107466880     
 -0.15072931080081101     
 -0.14639690312198103     
 -0.14190509547405158     
 -0.13724631430455453     
 -0.13239621094807663     
 -0.12733092804159096     
 -0.12201456169128250     
 -0.11644230247738724     
 -0.11056347885811042     
 -0.10407918999596090     
  -9.7133131123326319E-002
  -8.9760346791634985E-002
  -8.2020445178282317E-002
  -7.3233771257375679E-002
  -7.2604550419534758E-002
 -0.16337037670945967     
 -0.16284085325304901     
 -0.15759999765686772     
 -0.15324871707621593     
 -0.14862601973078929     
 -0.14388031892770914     
 -0.13905608742938910     
 -0.13413639554245940     
 -0.12910814987877298     
 -0.12394623465366422     
 -0.11864096261818410     
 -0.11318505111273916     
 -0.10740200253468771     
 -0.10119310889842439     
  -9.4688272663901701E-002
  -8.7904771493508976E-002
  -8.0795678853653782E-002
  -7.3024221804096803E-002
  -6.4754928955435012E-002
  -5.5934146568478976E-002
  -5.5401249613600080E-002
 -0.15361562554344299     
 -0.15300237941762979     
 -0.14689263089108193     
 -0.14160434694640758     
 -0.13626701092281160     
 -0.13091052183137372     
 -0.12552467415862373     
 -0.12010295116039220     
 -0.11465979828753840     
 -0.10909758017793862     
 -0.10319712199556340     
  -9.7149063231397811E-002
  -9.0967811834309173E-002
  -8.4671391062104390E-002
  -7.8008812907571709E-002
  -7.0969291191128908E-002
  -6.3563766130142085E-002
  -5.5861967102538199E-002
  -4.7660212306186278E-002
  -3.8784749988823197E-002
  -3.8299273579945697E-002
 -0.14110800252511135     
 -0.14053956226390626     
 -0.13385475489084814     
 -0.12787678335023353     
 -0.12193456561269601     
 -0.11607648619795832     
 -0.11025661737793190     
 -0.10421554482366861     
  -9.8148371089234812E-002
  -9.2108694407782424E-002
  -8.6096545929948004E-002
  -7.9991604379040834E-002
  -7.3632669249474356E-002
  -6.7129366998660039E-002
  -6.0476962344978971E-002
  -5.3738778023446079E-002
  -4.6468165296412768E-002
  -3.8796478611750874E-002
  -3.0724534246468736E-002
  -2.2238236776952178E-002
  -2.1964934350960766E-002
 -0.12649115080962389     
 -0.12592478552914613     
 -0.11877031036181648     