# vtk DataFile Version 2.0
3D Unstructured Grid of Linear Triangles
ASCII
DATASET UNSTRUCTURED_GRID
FIELD FieldData  1
TIME 1 1 double
        3600.00000
POINTS     7056 float
      0.00000000E+00  1.00000000E+01  1.00000000E+00
      5.00000000E-01  1.00000000E+01  9.93333333E-01
      1.00000000E+00  1.00000000E+01  9.83333333E-01
      1.50000000E+00  1.00000000E+01  9.73333333E-01
      2.00000000E+00  1.00000000E+01  9.63333333E-01
      2.50000000E+00  1.00000000E+01  9.53333333E-01
      3.00000000E+00  1.00000000E+01  9.43333333E-01
      3.50000000E+00  1.00000000E+01  9.33333333E-01
      4.00000000E+00  1.00000000E+01  9.23333333E-01
      4.50000000E+00  1.00000000E+01  9.13333333E-01
      5.00000000E+00  1.00000000E+01  9.03333333E-01
      5.50000000E+00  1.00000000E+01  8.93333333E-01
      6.00000000E+00  1.00000000E+01  8.83333333E-01
      6.50000000E+00  1.00000000E+01  8.73333333E-01
      7.00000000E+00  1.00000000E+01  8.63333333E-01
      7.50000000E+00  1.00000000E+01  8.53333333E-01
      8.00000000E+00  1.00000000E+01  8.43333333E-01
      8.50000000E+00  1.00000000E+01  8.33333333E-01
      9.00000000E+00  1.00000000E+01  8.23333333E-01
      9.50000000E+00  1.00000000E+01  8.13333333E-01
      1.00000000E+01  1.00000000E+01  8.10000000E-01
      0.00000000E+00  9.50000000E+00  9.83333333E-01
      5.00000000E-01  9.50000000E+00  9.82500000E-01
      1.00000000E+00  9.50000000E+00  9.72500000E-01
      1.50000000E+00  9.50000000E+00  9.62500000E-01
      2.00000000E+00  9.50000000E+00  9.52500000E-01
      2.50000000E+00  9.50000000E+00  9.42500000E-01
      3.00000000E+00  9.50000000E+00  9.32500000E-01
      3.50000000E+00  9.50000000E+00  9.22500000E-01
      4.00000000E+00  9.50000000E+00  9.12500000E-01
      4.50000000E+00  9.50000000E+00  9.02500000E-01
      5.00000000E+00  9.50000000E+00  8.92500000E-01
      5.50000000E+00  9.50000000E+00  8.82500000E-01
      6.00000000E+00  9.50000000E+00  8.72500000E-01
      6.50000000E+00  9.50000000E+00  8.62500000E-01
      7.00000000E+00  9.50000000E+00  8.52500000E-01
      7.50000000E+00  9.50000000E+00  8.42500000E-01
      8.00000000E+00  9.50000000E+00  8.32500000E-01
      8.50000000E+00  9.50000000E+00  8.22500000E-01
      9.00000000E+00  9.50000000E+00  8.12500000E-01
      9.50000000E+00  9.50000000E+00  8.02500000E-01
      1.00000000E+01  9.50000000E+00  8.01666667E-01
      0.00000000E+00  9.00000000E+00  9.58333333E-01
      5.00000000E-01  9.00000000E+00  9.57500000E-01
      1.00000000E+00  9.00000000E+00  9.47500000E-01
      1.50000000E+00  9.00000000E+00  9.37500000E-01
      2.00000000E+00  9.00000000E+00  9.27500000E-01
      2.50000000E+00  9.00000000E+00  9.17500000E-01
      3.00000000E+00  9.00000000E+00  9.07500000E-01
      3.50000000E+00  9.00000000E+00  8.97500000E-01
      4.00000000E+00  9.00000000E+00  8.87500000E-01
      4.50000000E+00  9.00000000E+00  8.77500000E-01
      5.00000000E+00  9.00000000E+00  8.67500000E-01
      5.50000000E+00  9.00000000E+00  8.57500000E-01
      6.00000000E+00  9.00000000E+00  8.47500000E-01
      6.50000000E+00  9.00000000E+00  8.37500000E-01
      7.00000000E+00  9.00000000E+00  8.27500000E-01
      7.50000000E+00  9.00000000E+00  8.17500000E-01
      8.00000000E+00  9.00000000E+00  8.07500000E-01
      8.50000000E+00  9.00000000E+00  7.97500000E-01
      9.00000000E+00  9.00000000E+00  7.87500000E-01
      9.50000000E+00  9.00000000E+00  7.77500000E-01
      1.00000000E+01  9.00000000E+00  7.76666667E-01
      0.00000000E+00  8.50000000E+00  9.33333333E-01
      5.00000000E-01  8.50000000E+00  9.32500000E-01
      1.00000000E+00  8.50000000E+00  9.22500000E-01
      1.50000000E+00  8.50000000E+00  9.12500000E-01
      2.00000000E+00  8.50000000E+00  9.02500000E-01
      2.50000000E+00  8.50000000E+00  8.92500000E-01
      3.00000000E+00  8.50000000E+00  8.82500000E-01
      3.50000000E+00  8.50000000E+00  8.72500000E-01
      4.00000000E+00  8.50000000E+00  8.62500000E-01
      4.50000000E+00  8.50000000E+00  8.52500000E-01
      5.00000000E+00  8.50000000E+00  8.42500000E-01
      5.50000000E+00  8.50000000E+00  8.32500000E-01
      6.00000000E+00  8.50000000E+00  8.22500000E-01
      6.50000000E+00  8.50000000E+00  8.12500000E-01
      7.00000000E+00  8.50000000E+00  8.02500000E-01
      7.50000000E+00  8.50000000E+00  7.92500000E-01
      8.00000000E+00  8.50000000E+00  7.82500000E-01
      8.50000000E+00  8.50000000E+00  7.72500000E-01
      9.00000000E+00  8.50000000E+00  7.62500000E-01
      9.50000000E+00  8.50000000E+00  7.52500000E-01
      1.00000000E+01  8.50000000E+00  7.51666667E-01
      0.00000000E+00  8.00000000E+00  9.08333333E-01
      5.00000000E-01  8.00000000E+00  9.07500000E-01
      1.00000000E+00  8.00000000E+00  8.97500000E-01
      1.50000000E+00  8.00000000E+00  8.87500000E-01
      2.00000000E+00  8.00000000E+00  8.77500000E-01
      2.50000000E+00  8.00000000E+00  8.67500000E-01
      3.00000000E+00  8.00000000E+00  8.57500000E-01
      3.50000000E+00  8.00000000E+00  8.47500000E-01
      4.00000000E+00  8.00000000E+00  8.37500000E-01
      4.50000000E+00  8.00000000E+00  8.27500000E-01
      5.00000000E+00  8.00000000E+00  8.17500000E-01
      5.50000000E+00  8.00000000E+00  8.07500000E-01
      6.00000000E+00  8.00000000E+00  7.97500000E-01
      6.50000000E+00  8.00000000E+00  7.87500000E-01
      7.00000000E+00  8.00000000E+00  7.77500000E-01
      7.50000000E+00  8.00000000E+00  7.67500000E-01
      8.00000000E+00  8.00000000E+00  7.57500000E-01
      8.50000000E+00  8.00000000E+00  7.47500000E-01
      9.00000000E+00  8.00000000E+00  7.37500000E-01
      9.50000000E+00  8.00000000E+00  7.27500000E-01
      1.00000000E+01  8.00000000E+00  7.26666667E-01
      0.00000000E+00  7.50000000E+00  8.83333333E-01
      5.00000000E-01  7.50000000E+00  8.82500000E-01
      1.00000000E+00  7.50000000E+00  8.72500000E-01
      1.50000000E+00  7.50000000E+00  8.62500000E-01
      2.00000000E+00  7.50000000E+00  8.52500000E-01
      2.50000000E+00  7.50000000E+00  8.42500000E-01
      3.00000000E+00  7.50000000E+00  8.32500000E-01
      3.50000000E+00  7.50000000E+00  8.22500000E-01
      4.00000000E+00  7.50000000E+00  8.12500000E-01
      4.50000000E+00  7.50000000E+00  8.02500000E-01
      5.00000000E+00  7.50000000E+00  7.92500000E-01
      5.50000000E+00  7.50000000E+00  7.82500000E-01
      6.00000000E+00  7.50000000E+00  7.72500000E-01
      6.50000000E+00  7.50000000E+00  7.62500000E-01
      7.00000000E+00  7.50000000E+00  7.52500000E-01
      7.50000000E+00  7.50000000E+00  7.42500000E-01
      8.00000000E+00  7.50000000E+00  7.32500000E-01
      8.50000000E+00  7.50000000E+00  7.22500000E-01
      9.00000000E+00  7.50000000E+00  7.12500000E-01
      9.50000000E+00  7.50000000E+00  7.02500000E-01
      1.00000000E+01  7.50000000E+00  7.01666667E-01
      0.00000000E+00  7.00000000E+00  8.58333333E-01
      5.00000000E-01  7.00000000E+00  8.57500000E-01
      1.00000000E+00  7.00000000E+00  8.47500000E-01
      1.50000000E+00  7.00000000E+00  8.37500000E-01
      2.00000000E+00  7.00000000E+00  8.27500000E-01
      2.50000000E+00  7.00000000E+00  8.17500000E-01
      3.00000000E+00  7.00000000E+00  8.07500000E-01
      3.50000000E+00  7.00000000E+00  7.97500000E-01
      4.00000000E+00  7.00000000E+00  7.87500000E-01
      4.50000000E+00  7.00000000E+00  7.77500000E-01
      5.00000000E+00  7.00000000E+00  7.67500000E-01
      5.50000000E+00  7.00000000E+00  7.57500000E-01
      6.00000000E+00  7.00000000E+00  7.47500000E-01
      6.50000000E+00  7.00000000E+00  7.37500000E-01
      7.00000000E+00  7.00000000E+00  7.27500000E-01
      7.50000000E+00  7.00000000E+00  7.17500000E-01
      8.00000000E+00  7.00000000E+00  7.07500000E-01
      8.50000000E+00  7.00000000E+00  6.97500000E-01
      9.00000000E+00  7.00000000E+00  6.87500000E-01
      9.50000000E+00  7.00000000E+00  6.77500000E-01
      1.00000000E+01  7.00000000E+00  6.76666667E-01
      0.00000000E+00  6.50000000E+00  8.33333333E-01
      5.00000000E-01  6.50000000E+00  8.32500000E-01
      1.00000000E+00  6.50000000E+00  8.22500000E-01
      1.50000000E+00  6.50000000E+00  8.12500000E-01
      2.00000000E+00  6.50000000E+00  8.02500000E-01
      2.50000000E+00  6.50000000E+00  7.92500000E-01
      3.00000000E+00  6.50000000E+00  7.82500000E-01
      3.50000000E+00  6.50000000E+00  7.72500000E-01
      4.00000000E+00  6.50000000E+00  7.62500000E-01
      4.50000000E+00  6.50000000E+00  7.52500000E-01
      5.00000000E+00  6.50000000E+00  7.42500000E-01
      5.50000000E+00  6.50000000E+00  7.32500000E-01
      6.00000000E+00  6.50000000E+00  7.22500000E-01
      6.50000000E+00  6.50000000E+00  7.12500000E-01
      7.00000000E+00  6.50000000E+00  7.02500000E-01
      7.50000000E+00  6.50000000E+00  6.92500000E-01
      8.00000000E+00  6.50000000E+00  6.82500000E-01
      8.50000000E+00  6.50000000E+00  6.72500000E-01
      9.00000000E+00  6.50000000E+00  6.62500000E-01
      9.50000000E+00  6.50000000E+00  6.52500000E-01
      1.00000000E+01  6.50000000E+00  6.51666667E-01
      0.00000000E+00  6.00000000E+00  8.08333333E-01
      5.00000000E-01  6.00000000E+00  8.07500000E-01
      1.00000000E+00  6.00000000E+00  7.97500000E-01
      1.50000000E+00  6.00000000E+00  7.87500000E-01
      2.00000000E+00  6.00000000E+00  7.77500000E-01
      2.50000000E+00  6.00000000E+00  7.67500000E-01
      3.00000000E+00  6.00000000E+00  7.57500000E-01
      3.50000000E+00  6.00000000E+00  7.47500000E-01
      4.00000000E+00  6.00000000E+00  7.37500000E-01
      4.50000000E+00  6.00000000E+00  7.27500000E-01
      5.00000000E+00  6.00000000E+00  7.17500000E-01
      5.50000000E+00  6.00000000E+00  7.07500000E-01
      6.00000000E+00  6.00000000E+00  6.97500000E-01
      6.50000000E+00  6.00000000E+00  6.87500000E-01
      7.00000000E+00  6.00000000E+00  6.77500000E-01
      7.50000000E+00  6.00000000E+00  6.67500000E-01
      8.00000000E+00  6.00000000E+00  6.57500000E-01
[...]
POINT_DATA     7056
SCALARS pressure float
LOOKUP_TABLE default
  -4.6142992061902949E-002
  -4.4654176205699850E-002
  -4.3728415637681400E-002
  -4.3136834689629186E-002
  -4.2695085681988786E-002
  -4.2353136864180872E-002
  -4.2077150666928513E-002
  -4.1845441826099235E-002
  -4.1643707993552145E-002
  -4.1459846324953066E-002
  -4.1281696552165292E-002
  -4.1100012149228420E-002
  -4.0901829490075821E-002
  -4.0675223208608391E-002
  -4.0399909777709790E-002
  -4.0051886903165794E-002
  -3.9589898806310593E-002
  -3.8939607484861964E-002
  -3.7960698948917376E-002
  -3.5763000310554710E-002
  -3.4508911031233887E-002
  -4.2930901980053844E-002
  -4.2364834313715176E-002
  -4.1035305586122339E-002
  -4.0430507806192527E-002
  -3.9973979076938213E-002
  -3.9613487314754774E-002
  -3.9318221518228558E-002
  -3.9067832978567196E-002
  -3.8847381982855686E-002
  -3.8643870805167319E-002
  -3.8445972188823105E-002
  -3.8241044683156838E-002
  -3.8016594441312931E-002
  -3.7756300264274442E-002
  -3.7437727196161286E-002
  -3.7028585754933820E-002
  -3.6474965108564385E-002
  -3.5671326438690594E-002
  -3.4360107745982742E-002
  -3.1112696647401343E-002
  -3.1089388286402321E-002
  -3.9884164731815282E-002
  -3.9321599376504798E-002
  -3.7561249125020409E-002
  -3.6682084891350747E-002
  -3.6007297865353449E-002
  -3.5465571231908959E-002
  -3.5010907986189707E-002
  -3.4616964651842372E-002
  -3.4258784186218555E-002
  -3.3917406954426396E-002
  -3.3574171731725222E-002
  -3.3203777905672326E-002
  -3.2779649392483838E-002
  -3.2257624213367621E-002
  -3.1594025462733231E-002
  -3.0758466841611962E-002
  -2.9671260451416871E-002
  -2.8185324855972835E-002
  -2.5991529813651826E-002
  -2.2250020840754250E-002
  -2.2357907986470416E-002
  -3.7731882341225750E-002
  -3.7321394800276179E-002
  -3.5185615035008999E-002
  -3.3940267019201317E-002
  -3.2898631674907912E-002
  -3.1976632697870176E-002
  -3.1181065901500011E-002
  -3.0517352402276321E-002
  -2.9941908710587314E-002
  -2.9418192532329832E-002
  -2.8914873769932709E-002
  -2.8401833896591237E-002
  -2.7847542157617020E-002
  -2.7214947022167538E-002
  -2.6456797153572069E-002
  -2.5506345748099738E-002
  -2.4254201029664569E-002
  -2.2500784783487441E-002
  -1.9944544249964176E-002
  -1.5345633545884228E-002
  -1.5554510266595909E-002
  -3.5911257955267437E-002
  -3.5564436607394292E-002
  -3.2905441562137941E-002
  -3.1021046632485942E-002
  -2.9604965935476187E-002
  -2.8527863224214235E-002
  -2.7668498929649895E-002
  -2.6952923296526730E-002
  -2.6330038694604020E-002
  -2.5760729037478905E-002
  -2.5211320570052178E-002
  -2.4649055470564587E-002
  -2.4038637462071698E-002
  -2.3337354049759087E-002
  -2.2484600058641127E-002
  -2.1384875997135223E-002
  -1.9909987103996274E-002
  -1.7819415981217723E-002
  -1.3937450592998663E-002
  -8.3564692779651891E-003
  -8.5758999718287005E-003
  -3.4220641783310052E-002
  -3.3897787902877036E-002
  -3.0505246606516725E-002
  -2.8418082186296521E-002
  -2.6931937564737708E-002
  -2.5798694708246597E-002
  -2.4887175401864057E-002
  -2.4121110966504107E-002
  -2.3448510936102982E-002
  -2.2828702930684609E-002
  -2.2225367554607779E-002
  -2.1600629402668159E-002
  -2.0907421969777747E-002
  -2.0095372157692141E-002
  -1.9099170317020360E-002
  -1.7754022185565602E-002
  -1.5456651192611181E-002
  -1.2346819941577271E-002
  -7.9018462455665937E-003
  -6.6524056780621187E-004
  -7.9126260284081507E-004
  -3.2439153031254643E-002
  -3.2133385997293415E-002
  -2.8448375122175001E-002
  -2.6284798578352798E-002
  -2.4737825980171022E-002
  -2.3543319262909850E-002
  -2.2570289396574156E-002
  -2.1741548466517099E-002
  -2.1001967485751859E-002
  -2.0304077170807747E-002
  -1.9610085061344176E-002
  -1.8884069297602564E-002
  -1.8050004192372165E-002
  -1.6828044028784055E-002
  -1.5282249779723887E-002
  -1.3363932076185719E-002
  -1.0900450720700103E-002
  -7.5190744531362982E-003
   3.5570678294807588E-006
   1.0462326362628443E-005
   8.8764760361729077E-006
  -3.0643731218138820E-002
  -3.0430724762931603E-002
  -2.6695760983018322E-002
  -2.4463781977449729E-002
  -2.2846223885890190E-002
  -2.1576316728751616E-002
  -2.0517364123269304E-002
  -1.9587077369983007E-002
  -1.8735750620189565E-002
  -1.7887888252519107E-002
  -1.6819359196020168E-002
  -1.5688101799432898E-002
  -1.4465223454436007E-002
  -1.3083397026312950E-002
  -1.1469096608241837E-002
  -9.5100601078467739E-003
  -7.1127189515158527E-003
  -4.0321509084092185E-003
   1.0779109711756471E-005
   2.3322934863552224E-005
   2.5601102432983636E-005
  -2.9062867881311811E-002
  -2.8926554641640814E-002
  -2.5140322177247851E-002
  -2.2829477721479405E-002
  -2.1121177540525858E-002
  -1.9735592978825336E-002
  -1.8534602451750058E-002
  -1.7299592894373654E-002
  -1.5985968824694590E-002
  -1.4761939442854647E-002
  -1.3583010968321823E-002
  -1.2397011326451249E-002
  -1.1137861802131520E-002
  -9.7300318794787295E-003
  -8.0725364243558716E-003
  -6.2657734506000240E-003
  -3.7356301621100244E-003
   3.9606987245459179E-006
   1.8564525521974757E-005
   3.2799382297658064E-005
   3.2797669547962589E-005
  -2.7605912938320799E-002
  -2.7529509050510111E-002
  -2.3683063341525468E-002
  -2.1270268186870073E-002
  -1.9422593801716067E-002
  -1.7825100278369675E-002
  -1.6024943230666965E-002
  -1.4439144323789283E-002
  -1.3047479856097114E-002
  -1.1783079893395981E-002
  -1.0579810259258183E-002
  -9.3682960460182672E-003
  -8.0577134262311261E-003
  -6.6373863763163794E-003
  -4.8479375988676960E-003
  -2.9539989693224129E-003
   3.1138620267505161E-006
   1.1113965229315979E-005
   2.8545929848642672E-005
   4.0667000507333557E-005
   3.9625928504299733E-005
  -2.6182476987309307E-002
  -2.6153877707872069E-002
  -2.2228313420754816E-002
  -1.9667064456937652E-002
  -1.7514618916181189E-002
  -1.5210783996899744E-002
  -1.3270955400305220E-002
  -1.1638520830657037E-002
  -1.0224632289724806E-002
  -8.9329626648108323E-003
  -7.6755988457360589E-003
  -6.4580374321877602E-003
  -5.0326856974931659E-003
  -3.3291318614859992E-003
   1.0744470259080958E-007
   3.7676515911374372E-006
   9.6511934847140341E-006
   1.9733736048506289E-005
   3.6283942481693564E-005
   4.8013323038128639E-005
   4.6646523353878071E-005
  -2.4701855263880270E-002
  -2.4711067995490582E-002
  -2.0661667659178366E-002
  -1.7858910176805711E-002
  -1.4899607781269702E-002
  -1.2465581637395714E-002
  -1.0490754793355679E-002
  -8.8190240524983927E-003
  -7.3741336797090726E-003
  -6.1244293223515116E-003
  -4.6033018887556808E-003
  -3.2697825533074482E-003
  -1.5095203710864861E-003
   2.5080384185738714E-006
   5.9549715167255838E-006
   1.0715793621638621E-005
   1.8192985219365222E-005
   2.7038716544583438E-005
   4.3343358847017112E-005
   5.5534887625294027E-005
   5.4257179424747248E-005
  -2.3059942583257421E-002
  -2.3079019050964506E-002
  -1.8860456585507872E-002
  -1.5172836958186430E-002
  -1.2041781819936443E-002
  -9.5508696093846504E-003
  -7.5325174760576749E-003
  -5.9157912981251904E-003
  -4.2536753484483719E-003
  -2.7857940554880741E-003
   9.6211015769805506E-007
   3.4330384212699514E-006
   5.6358628651916268E-006
   8.9729600304588737E-006
   1.4383749697586628E-005
   1.9327413512471169E-005
   2.5434015484692783E-005
   3.4159225503510819E-005
   5.0622295294105314E-005
   6.3701003080735393E-005
   6.2848038848834420E-005
  -2.1122171157371430E-002
  -2.1113154090498715E-002
  -1.6250032898958166E-002
  -1.2054882435754522E-002
  -8.8393106271660773E-003
  -6.2771790750061496E-003
  -4.2116484183690982E-003
  -2.2646484283565466E-003
   2.2303258867901265E-006
   5.0495878217241214E-006
   7.6332221896977603E-006
   1.1324907001448812E-005
   1.5058220463027212E-005
   1.8547842545906684E-005
   2.2411283667943870E-005
   2.7079561436291025E-005
   3.3175138917279244E-005
   4.1993380340979112E-005
   5.8691425185153535E-005
   7.2998793963300929E-005
   7.2837066717642974E-005
  -1.8586198813965220E-002
  -1.8596252259023047E-002
  -1.2696362367993257E-002
  -8.3716521097525268E-003
  -5.1132803298843130E-003
  -1.3450529004377946E-003
   3.5457591455139533E-006
   6.9208691522412528E-006
   1.0303781800046580E-005
   1.5141742381752121E-005
   1.8497869439877226E-005
   2.1452894326798490E-005
   2.4394982349219890E-005
   2.7638265073138246E-005
   3.1400432216975539E-005
   3.6079831319967873E-005
   4.2269192713710493E-005
   5.1231048942296143E-005
   6.8171719330920426E-005
   8.4008966921351376E-005
   8.4743548710930884E-005
  -1.4326723541331830E-002
  -1.4397265741878223E-002
  -8.1254593688881230E-003
  -4.1020261960565780E-003
   3.7142379723935735E-006
   8.8251650974082306E-006
   1.3806252706243946E-005
   1.9883983641896104E-005
   2.3767592141780861E-005
   2.6950535661735438E-005
   2.9826892740919548E-005
   3.2599196670183568E-005
   3.5479545754592130E-005
   3.8718054802444617E-005
   4.2535857234801046E-005
   4.7290212788973334E-005
   5.3596383724214560E-005
   6.2722729978922226E-005
   7.9908641952872446E-005
   9.7523267805345223E-005
   9.9275852842604427E-005
  -8.7789080624647645E-003
  -8.6696825707975964E-003
   2.0202662507277700E-006
   8.7557682513000888E-006
   1.6189770829857386E-005
   2.4935558306745603E-005
   3.0680017681174515E-005
   3.4920932228022734E-005
   3.8428556906562809E-005
   4.1466077227355850E-005
   4.4297165610627791E-005
   4.7099353928883818E-005
   5.0028487558806705E-005
   5.3315988869885716E-005
   5.7217669425851894E-005
   6.2079423778678449E-005
   6.8513584222670823E-005
   7.7808519582329213E-005
   9.5242791094205654E-005
   1.1479462706458556E-004
   1.1752067519560803E-004
  -2.3946788375257991E-003
   3.5322069940145554E-006
   1.5826713526670973E-005
   2.8687381362562428E-005
   3.9116167046576065E-005
   4.6037813648755183E-005
   5.1216550005943132E-005
   5.5369254694638716E-005
   5.8883862955851470E-005
   6.1994548982057055E-005
   6.4891093318215798E-005
   6.7770865478720466E-005
   7.0797197833407188E-005
   7.4177111023539529E-005
   7.8182676589608237E-005
   8.3172634588816048E-005
   8.9752645842811865E-005
   9.9220036351443423E-005
   1.1689981270392080E-004
   1.3828194140701815E-004
   1.4148924547121794E-004
   2.7001150054533589E-005
   2.9031051023269005E-005
   4.8525301635837666E-005
   6.5448999998445420E-005
   7.4813410669933393E-005
   8.1599062089803286E-005
   8.6848801779884380E-005
   9.1137409194173464E-005
   9.4785089301333914E-005
   9.8030476605682974E-005
   1.0105833817450136E-004
   1.0405565265607738E-004
   1.0720738673447588E-004
   1.1071597932502128E-004
   1.1485341911721170E-004
   1.1999444215341294E-004
   1.2674586885781829E-004
   1.3639543310488750E-004
   1.5426627008176629E-004
   1.7595324492633501E-004
   1.7695247193393981E-004
   1.2321035857257705E-004
   1.1603879806974513E-004
   1.4769004761994560E-004
   1.7544003637997077E-004
   1.9555765892568299E-004
   2.1345161379149053E-004
   2.3039632301120874E-004
   2.4694681558453773E-004
   2.6345649335270891E-004
   2.8016910354096945E-004
   2.9729232509661608E-004
   3.1503502562495883E-004
   3.3363955215118512E-004
   3.5340164220358619E-004
   3.7472419790274432E-004
   3.9819937078541839E-004
   4.2478494433726555E-004
   4.5638391359982577E-004
   4.9983143438822359E-004
   5.4881365715679143E-004
   4.4755390398702803E-004
   1.6421112759814547E-004
   1.7449090592664963E-004
   2.1096211185363462E-004
   2.5300910876962195E-004
   2.8423956561388124E-004
   3.1315023850012725E-004
   3.4146876557401026E-004
   3.6991291710812075E-004
   3.9886779437926806E-004
   4.2860232621614913E-004
   4.5933868922762555E-004
   4.9130212699815656E-004
   5.2476368377855800E-004
   5.6007709278085339E-004
   5.9773026152022094E-004
   6.3844286694215643E-004
   6.8336222874916281E-004
   7.3462280061566002E-004
   7.9862206617541641E-004
   8.7540251996068958E-004
   9.2486433527405598E-004
  -4.0567575955672931E-002
  -3.9207624199328134E-002
  -3.8267212173376156E-002
  -3.7656130320446200E-002
  -3.7194604103449116E-002
  -3.6837620605643918E-002
  -3.6549726129718116E-002
  -3.6308116128574056E-002
  -3.6097774701877423E-002
  -3.5906061595579658E-002
  -3.5720391976010860E-002
  -3.5531053909863552E-002
  -3.5324690637302113E-002
  -3.5088835032602163E-002
  -3.4802642710776169E-002
  -3.4441230379781904E-002
  -3.3962103208240987E-002
  -3.3288885373240637E-002
  -3.2273791641255961E-002
  -3.0045532969813171E-002
  -2.8934610680734697E-002
  -3.7466717735092747E-002
  -3.7119788406704948E-002
  -3.5723851411507371E-002
  -3.5081317427641950E-002
  -3.4599618033226490E-002
  -3.4220281456041904E-002
  -3.3909825098995108E-002
  -3.3646630059344429E-002
  -3.3414908866493481E-002
  -3.3201028709032354E-002
  -3.2993052319448657E-002
  -3.2777812647631667E-002
  -3.2542226858535889E-002
  -3.2269388372358723E-002
  -3.1936227721074441E-002
  -3.1509630333337951E-002
  -3.0934736278317519E-002
  -3.0105646097813039E-002
  -2.8768927535839900E-002
  -2.5514804669229833E-002
  -2.5616633509588451E-002
  -3.4319028784670462E-002
  -3.3935391521017488E-002
  -3.2120868526400038E-002
  -3.1210399932888749E-002
  -3.0515861986307423E-002
  -2.9960427288792939E-002
  -2.9496497373905688E-002
  -2.9096508550694185E-002
  -2.8734658087071856E-002
  -2.8391473773696416E-002
  -2.8048207186363378E-002
  -2.7679533926249583E-002
  -2.7259185239426224E-002
  -2.6739383422929652E-002
  -2.6055547139186584E-002
  -2.5180611956367109E-002
  -2.4045897290802528E-002
  -2.2502242963609552E-002
  -2.0236461774417486E-002
  -1.6426603028638156E-002
  -1.6583630028235343E-002
  -3.2105532186289074E-002
  -3.1851858840140329E-002
  -2.9680091122111712E-002
  -2.8423557140502143E-002
  -2.7390084893613751E-002
  -2.6474643900152067E-002
  -2.5648822018356051E-002
  -2.4954223701681353E-002
  -2.4352972475029409E-002
  -2.3806564950849627E-002
  -2.3282113779371640E-002
  -2.2748206448876603E-002
  -2.2172125627588059E-002
  -2.1515623171861228E-002
  -2.0730223814579108E-002
  -1.9748584374337911E-002
  -1.8461515456159094E-002
  -1.6665869673215254E-002
  -1.4057834908775199E-002
  -9.4459638044358859E-003
  -9.6810305248009217E-003
  -3.0249663775243664E-002
  -3.0044974897145801E-002
  -2.7395891343656754E-002
  -2.5487125852809728E-002
  -2.4010666823509053E-002
  -2.2888301628904841E-002
  -2.1994350869328157E-002
  -2.1251769334845745E-002
  -2.0606798756124568E-002
  -2.0018348197968779E-002
  -1.9451384097762814E-002
  -1.8872087478974221E-002
  -1.8244274051458134E-002
  -1.7524499825138162E-002
  -1.6652289715933490E-002
  -1.5529757501019004E-002
  -1.4027347445679510E-002
  -1.1922378679136350E-002
  -8.0019563388308498E-003
  -2.3910452463962806E-003
  -2.6160256733801547E-003
  -2.8547537062533140E-002
  -2.8361516454293464E-002
  -2.4945922425018755E-002
  -2.2774705239140054E-002
  -2.1231957597415720E-002
  -2.0059926577718525E-002
  -1.9120054632602114E-002
  -1.8332094299445555E-002
  -1.7641633995749147E-002
  -1.7006469920231970E-002
  -1.6389269726853423E-002
  -1.5751722989883043E-002
  -1.5045548226384575E-002
  -1.4218617217344739E-002
  -1.3206913143458242E-002
  -1.1863926905978303E-002
  -9.5459311361579865E-003
  -6.3967812594424266E-003
  -1.9288616716540167E-003
   5.2517178224409829E-003
   5.1228024420488958E-003
  -2.6780321266650375E-002
  -2.6602294660975329E-002
  -2.2802915566884633E-002
  -2.0561122615565367E-002
  -1.8966248842722196E-002
  -1.7739557518551798E-002
  -1.6743209123838712E-002
  -1.5896677776386814E-002
  -1.5143326892244183E-002
  -1.4433618009139077E-002
  -1.3727977833092415E-002
  -1.2991747214093389E-002
  -1.2153681309840642E-002
  -1.0936706590184982E-002
  -9.3719969344560200E-003
  -7.4338327909259077E-003
  -4.9500928495654784E-003
  -1.5471818543963504E-003
   5.8728575440858168E-003
   6.0427569776767788E-003
   6.0117078412735472E-003
  -2.4933073544863182E-002
  -2.4819622368272180E-002
  -2.0982219982021530E-002
  -1.8682780775130584E-002
  -1.7024721799551987E-002
  -1.5728042444350204E-002
  -1.4650615602659846E-002
  -1.3706157887158137E-002
  -1.2843847504153539E-002
  -1.1997186760487629E-002
  -1.0930958708366179E-002
  -9.7848987012610252E-003
  -8.5474491845996935E-003
  -7.1506737272761757E-003
  -5.5222752704134773E-003
  -3.5513842170899236E-003
  -1.1413266010203505E-003
   1.9455871412033894E-003
   5.9773685179448713E-003
   6.1023748467995296E-003
   6.0743191672296961E-003
  -2.3304541503144451E-002
  -2.3250380564827047E-002
  -1.9374679715559884E-002
  -1.7005657416008964E-002
  -1.5263744097144684E-002
  -1.3856466342259134E-002
  -1.2641098879754599E-002
  -1.1418454674920560E-002
  -1.0088375566346505E-002
  -8.8491277234148784E-003
  -7.6561755882531566E-003
  -6.4578409680304382E-003
  -5.1879246242877430E-003
  -3.7706385078638311E-003
  -2.1053371982311235E-003
  -2.8894746198780729E-004
   2.2451323010850848E-003
   5.9513985911772123E-003
   6.0354889009357421E-003
   6.1449901700057191E-003
   6.1127908543818542E-003
  -2.1808661692297126E-002
  -2.1800464304889022E-002
  -1.7875605880962361E-002
  -1.5413491585258886E-002
  -1.3537684054969303E-002
  -1.1935884983346879E-002
  -1.0127390115231782E-002
  -8.5225808109919143E-003
  -7.1152446977222530E-003
  -5.8388825751872720E-003
  -4.6258826183048973E-003
  -3.4065941109886430E-003
  -2.0893888543684321E-003
  -6.6115144132917363E-004
   1.1321673953233375E-003
   3.0273708725897493E-003
   5.9563136083405329E-003
   6.0151904125481078E-003
   6.0743143101235951E-003
   6.1785144627992863E-003
   6.1443525168324107E-003
  -2.0351658995750817E-002
  -2.0379278201416173E-002
  -1.6386166610340005E-002
  -1.3782568870225963E-002
  -1.1631716636924850E-002
  -9.3022140613883992E-003
  -7.3409105947326312E-003
  -5.6931914013501382E-003
  -4.2685465444203367E-003
  -2.9690879096496013E-003
  -1.7052180925319911E-003
  -4.8216383986658250E-004
   9.4463263762227089E-004
   2.6530728105579812E-003
   6.0098138234328585E-003
   5.9763791993712933E-003
   6.0133350200197895E-003
   6.0508325005693324E-003
   6.1050754192825971E-003
   6.2075902834485197E-003
   6.1726164790534789E-003
  -1.8840580922402709E-002
  -1.8895342258646967E-002
  -1.4787438401172970E-002
  -1.1961741247296313E-002
  -8.9843189735398215E-003
  -6.5265318351625905E-003
  -4.5365561376148611E-003
  -2.8552577649852409E-003
  -1.4026879175808246E-003
  -1.4563893847640370E-004
   1.3770684512589891E-003
   2.7105843511942497E-003
   4.4576980179241730E-003
   5.9637700500941677E-003
   5.9976322614443828E-003
   6.0198931711056523E-003
   6.0469262668470915E-003
   6.0800764902578337E-003
   6.1325625348877940E-003
   6.2350785628601203E-003
   6.1999060530925137E-003
  -1.7169892321297682E-002
  -1.7224636807524889E-002
  -1.2956574109389704E-002
  -9.2556379073343315E-003
  -6.0975228108100582E-003
  -3.5900266853895160E-003
  -1.5621989589070446E-003
   5.9326335690846493E-005
   1.7267691699661865E-003
   3.1964472471557722E-003
   5.9427638806316971E-003
   5.9721986690242776E-003
   5.9930693685296133E-003
   6.0137228302776340E-003
   6.0329338901542297E-003
   6.0524459153913765E-003
   6.0759881839669520E-003
   6.1078112324675082E-003
   6.1598248684823541E-003
   6.2631199795747964E-003
   6.2281742750950270E-003
  -1.5204767647339501E-002
  -1.5219730706437147E-002
  -1.0335751514760152E-002
  -6.1085535857636408E-003
  -2.8729937910474262E-003
  -3.0062817795662106E-004
   1.7671334115254855E-003
   3.7091929357389829E-003
   5.9537840956794281E-003
   5.9829757324201755E-003
   6.0062032948310709E-003
   6.0213201108822263E-003
   6.0356398444286335E-003
   6.0498671629385043E-003
   6.0652115420216594E-003
   6.0831521800840845E-003
   6.1058291869482114E-003
   6.1372005305761045E-003
   6.1891676768248034E-003
   6.2937662085395486E-003
   6.2593527865689369E-003
  -1.2643083276984270E-002
  -1.2666436674933397E-002
  -6.7484020453213254E-003