# vtk DataFile Version 2.0
3D Unstructured Grid of Linear Triangles
ASCII
DATASET UNSTRUCTURED_GRID
FIELD FieldData  1
TIME 1 1 double
        3600.00000
POINTS     7056 float
      0.00000000E+00  1.00000000E+01  1.00000000E+00
      5.00000000E-01  1.00000000E+01  9.93333333E-01
      1.00000000E+00  1.00000000E+01  9.83333333E-01
      1.50000000E+00  1.00000000E+01  9.73333333E-01
      2.00000000E+00  1.00000000E+01  9.63333333E-01
      2.50000000E+00  1.00000000E+01  9.53333333E-01
      3.00000000E+00  1.00000000E+01  9.43333333E-01
      3.50000000E+00  1.00000000E+01  9.33333333E-01
      4.00000000E+00  1.00000000E+01  9.23333333E-01
      4.50000000E+00  1.00000000E+01  9.13333333E-01
      5.00000000E+00  1.00000000E+01  9.03333333E-01
      5.50000000E+00  1.00000000E+01  8.93333333E-01
      6.00000000E+00  1.00000000E+01  8.83333333E-01
      6.50000000E+00  1.00000000E+01  8.73333333E-01
      7.00000000E+00  1.00000000E+01  8.63333333E-01
      7.50000000E+00  1.00000000E+01  8.53333333E-01
      8.00000000E+00  1.00000000E+01  8.43333333E-01
      8.50000000E+00  1.00000000E+01  8.33333333E-01
      9.00000000E+00  1.00000000E+01  8.23333333E-01
      9.50000000E+00  1.00000000E+01  8.13333333E-01
      1.00000000E+01  1.00000000E+01  8.10000000E-01
      0.00000000E+00  9.50000000E+00  9.83333333E-01
      5.00000000E-01  9.50000000E+00  9.82500000E-01
      1.00000000E+00  9.50000000E+00  9.72500000E-01
      1.50000000E+00  9.50000000E+00  9.62500000E-01
      2.00000000E+00  9.50000000E+00  9.52500000E-01
      2.50000000E+00  9.50000000E+00  9.42500000E-01
      3.00000000E+00  9.50000000E+00  9.32500000E-01
      3.50000000E+00  9.50000000E+00  9.22500000E-01
      4.00000000E+00  9.50000000E+00  9.12500000E-01
      4.50000000E+00  9.50000000E+00  9.02500000E-01
      5.00000000E+00  9.50000000E+00  8.92500000E-01
      5.50000000E+00  9.50000000E+00  8.82500000E-01
      6.00000000E+00  9.50000000E+00  8.72500000E-01
      6.50000000E+00  9.50000000E+00  8.62500000E-01
      7.00000000E+00  9.50000000E+00  8.52500000E-01
      7.50000000E+00  9.50000000E+00  8.42500000E-01
      8.00000000E+00  9.50000000E+00  8.32500000E-01
      8.50000000E+00  9.50000000E+00  8.22500000E-01
      9.00000000E+00  9.50000000E+00  8.12500000E-01
      9.50000000E+00  9.50000000E+00  8.02500000E-01
      1.00000000E+01  9.50000000E+00  8.01666667E-01
      0.00000000E+00  9.00000000E+00  9.58333333E-01
      5.00000000E-01  9.00000000E+00  9.57500000E-01
      1.00000000E+00  9.00000000E+00  9.47500000E-01
      1.50000000E+00  9.00000000E+00  9.37500000E-01
      2.00000000E+00  9.00000000E+00  9.27500000E-01
      2.50000000E+00  9.00000000E+00  9.17500000E-01
      3.00000000E+00  9.00000000E+00  9.07500000E-01
      3.50000000E+00  9.00000000E+00  8.97500000E-01
      4.00000000E+00  9.00000000E+00  8.87500000E-01
      4.50000000E+00  9.00000000E+00  8.77500000E-01
      5.00000000E+00  9.00000000E+00  8.67500000E-01
      5.50000000E+00  9.00000000E+00  8.57500000E-01
      6.00000000E+00  9.00000000E+00  8.47500000E-01
      6.50000000E+00  9.00000000E+00  8.37500000E-01
      7.00000000E+00  9.00000000E+00  8.27500000E-01
      7.50000000E+00  9.00000000E+00  8.17500000E-01
      8.00000000E+00  9.00000000E+00  8.07500000E-01
      8.50000000E+00  9.00000000E+00  7.97500000E-01
      9.00000000E+00  9.00000000E+00  7.87500000E-01
      9.50000000E+00  9.00000000E+00  7.77500000E-01
      1.00000000E+01  9.00000000E+00  7.76666667E-01
      0.00000000E+00  8.50000000E+00  9.33333333E-01
      5.00000000E-01  8.50000000E+00  9.32500000E-01
      1.00000000E+00  8.50000000E+00  9.22500000E-01
      1.50000000E+00  8.50000000E+00  9.12500000E-01
      2.00000000E+00  8.50000000E+00  9.02500000E-01
      2.50000000E+00  8.50000000E+00  8.92500000E-01
      3.00000000E+00  8.50000000E+00  8.82500000E-01
      3.50000000E+00  8.50000000E+00  8.72500000E-01
      4.00000000E+00  8.50000000E+00  8.62500000E-01
      4.50000000E+00  8.50000000E+00  8.52500000E-01
      5.00000000E+00  8.50000000E+00  8.42500000E-01
      5.50000000E+00  8.50000000E+00  8.32500000E-01
      6.00000000E+00  8.50000000E+00  8.22500000E-01
      6.50000000E+00  8.50000000E+00  8.12500000E-01
      7.00000000E+00  8.50000000E+00  8.02500000E-01
      7.50000000E+00  8.50000000E+00  7.92500000E-01
      8.00000000E+00  8.50000000E+00  7.82500000E-01
      8.50000000E+00  8.50000000E+00  7.72500000E-01
      9.00000000E+00  8.50000000E+00  7.62500000E-01
      9.50000000E+00  8.50000000E+00  7.52500000E-01
      1.00000000E+01  8.50000000E+00  7.51666667E-01
      0.00000000E+00  8.00000000E+00  9.08333333E-01
      5.00000000E-01  8.00000000E+00  9.07500000E-01
      1.00000000E+00  8.00000000E+00  8.97500000E-01
      1.50000000E+00  8.00000000E+00  8.87500000E-01
      2.00000000E+00  8.00000000E+00  8.77500000E-01
      2.50000000E+00  8.00000000E+00  8.67500000E-01
      3.00000000E+00  8.00000000E+00  8.57500000E-01
      3.50000000E+00  8.00000000E+00  8.47500000E-01
      4.00000000E+00  8.00000000E+00  8.37500000E-01
      4.50000000E+00  8.00000000E+00  8.27500000E-01
      5.00000000E+00  8.00000000E+00  8.17500000E-01
      5.50000000E+00  8.00000000E+00  8.07500000E-01
      6.00000000E+00  8.00000000E+00  7.97500000E-01
      6.50000000E+00  8.00000000E+00  7.87500000E-01
      7.00000000E+00  8.00000000E+00  7.77500000E-01
      7.50000000E+00  8.00000000E+00  7.67500000E-01
      8.00000000E+00  8.00000000E+00  7.57500000E-01
      8.50000000E+00  8.00000000E+00  7.47500000E-01
      9.00000000E+00  8.00000000E+00  7.37500000E-01
      9.50000000E+00  8.00000000E+00  7.27500000E-01
      1.00000000E+01  8.00000000E+00  7.26666667E-01
      0.00000000E+00  7.50000000E+00  8.83333333E-01
      5.00000000E-01  7.50000000E+00  8.82500000E-01
      1.00000000E+00  7.50000000E+00  8.72500000E-01
      1.50000000E+00  7.50000000E+00  8.62500000E-01
      2.00000000E+00  7.50000000E+00  8.52500000E-01
      2.50000000E+00  7.50000000E+00  8.42500000E-01
      3.00000000E+00  7.50000000E+00  8.32500000E-01
      3.50000000E+00  7.50000000E+00  8.22500000E-01
      4.00000000E+00  7.50000000E+00  8.12500000E-01
      4.50000000E+00  7.50000000E+00  8.02500000E-01
      5.00000000E+00  7.50000000E+00  7.92500000E-01
      5.50000000E+00  7.50000000E+00  7.82500000E-01
      6.00000000E+00  7.50000000E+00  7.72500000E-01
      6.50000000E+00  7.50000000E+00  7.62500000E-01
      7.00000000E+00  7.50000000E+00  7.52500000E-01
      7.50000000E+00  7.50000000E+00  7.42500000E-01
      8.00000000E+00  7.50000000E+00  7.32500000E-01
      8.50000000E+00  7.50000000E+00  7.22500000E-01
      9.00000000E+00  7.50000000E+00  7.12500000E-01
      9.50000000E+00  7.50000000E+00  7.02500000E-01
      1.00000000E+01  7.50000000E+00  7.01666667E-01
      0.00000000E+00  7.00000000E+00  8.58333333E-01
      5.00000000E-01  7.00000000E+00  8.57500000E-01
      1.00000000E+00  7.00000000E+00  8.47500000E-01
      1.50000000E+00  7.00000000E+00  8.37500000E-01
      2.00000000E+00  7.00000000E+00  8.27500000E-01
      2.50000000E+00  7.00000000E+00  8.17500000E-01
      3.00000000E+00  7.00000000E+00  8.07500000E-01
      3.50000000E+00  7.00000000E+00  7.97500000E-01
      4.00000000E+00  7.00000000E+00  7.87500000E-01
      4.50000000E+00  7.00000000E+00  7.77500000E-01
      5.00000000E+00  7.00000000E+00  7.67500000E-01
      5.50000000E+00  7.00000000E+00  7.57500000E-01
      6.00000000E+00  7.00000000E+00  7.47500000E-01
      6.50000000E+00  7.00000000E+00  7.37500000E-01
      7.00000000E+00  7.00000000E+00  7.27500000E-01
      7.50000000E+00  7.00000000E+00  7.17500000E-01
      8.00000000E+00  7.00000000E+00  7.07500000E-01
      8.50000000E+00  7.00000000E+00  6.97500000E-01
      9.00000000E+00  7.00000000E+00  6.87500000E-01
      9.50000000E+00  7.00000000E+00  6.77500000E-01
      1.00000000E+01  7.00000000E+00  6.76666667E-01
      0.00000000E+00  6.50000000E+00  8.33333333E-01
      5.00000000E-01  6.50000000E+00  8.32500000E-01
      1.00000000E+00  6.50000000E+00  8.22500000E-01
      1.50000000E+00  6.50000000E+00  8.12500000E-01
      2.00000000E+00  6.50000000E+00  8.02500000E-01
      2.50000000E+00  6.50000000E+00  7.92500000E-01
      3.00000000E+00  6.50000000E+00  7.82500000E-01
      3.50000000E+00  6.50000000E+00  7.72500000E-01
      4.00000000E+00  6.50000000E+00  7.62500000E-01
      4.50000000E+00  6.50000000E+00  7.52500000E-01
      5.00000000E+00  6.50000000E+00  7.42500000E-01
      5.50000000E+00  6.50000000E+00  7.32500000E-01
      6.00000000E+00  6.50000000E+00  7.22500000E-01
      6.50000000E+00  6.50000000E+00  7.12500000E-01
      7.00000000E+00  6.50000000E+00  7.02500000E-01
      7.50000000E+00  6.50000000E+00  6.92500000E-01
      8.00000000E+00  6.50000000E+00  6.82500000E-01
      8.50000000E+00  6.50000000E+00  6.72500000E-01
      9.00000000E+00  6.50000000E+00  6.62500000E-01
      9.50000000E+00  6.50000000E+00  6.52500000E-01
      1.00000000E+01  6.50000000E+00  6.51666667E-01
      0.00000000E+00  6.00000000E+00  8.08333333E-01
      5.00000000E-01  6.00000000E+00  8.07500000E-01
      1.00000000E+00  6.00000000E+00  7.97500000E-01
      1.50000000E+00  6.00000000E+00  7.87500000E-01
      2.00000000E+00  6.00000000E+00  7.77500000E-01
      2.50000000E+00  6.00000000E+00  7.67500000E-01
      3.00000000E+00  6.00000000E+00  7.57500000E-01
      3.50000000E+00  6.00000000E+00  7.47500000E-01
      4.00000000E+00  6.00000000E+00  7.37500000E-01
      4.50000000E+00  6.00000000E+00  7.27500000E-01
      5.00000000E+00  6.00000000E+00  7.17500000E-01
      5.50000000E+00  6.00000000E+00  7.07500000E-01
      6.00000000E+00  6.00000000E+00  6.97500000E-01
      6.50000000E+00  6.00000000E+00  6.87500000E-01
      7.00000000E+00  6.00000000E+00  6.77500000E-01
      7.50000000E+00  6.00000000E+00  6.67500000E-01
      8.00000000E+00  6.00000000E+00  6.57500000E-01
[...]
POINT_DATA     7056
SCALARS pressure float
LOOKUP_TABLE default
 -0.13113766403917779     
 -0.13022570079743379     
 -0.12993239066166773     
 -0.12974379724848190     
 -0.12954431618792484     
 -0.12935624003249793     
 -0.12916257690018559     
 -0.12896236040711176     
 -0.12876608872203107     
 -0.12854023518324567     
 -0.12829210263885274     
 -0.12801237741982122     
 -0.12767756992926169     
 -0.12727096723304906     
 -0.12676150387960342     
 -0.12610225699597316     
 -0.12524094155024673     
 -0.12408416064152099     
 -0.12277442334154727     
 -0.11944101660700289     
 -0.11887984664837019     
 -0.12955451729050146     
 -0.12903826718023248     
 -0.12790573607534456     
 -0.12789841991179449     
 -0.12769290396169958     
 -0.12749452586180132     
 -0.12728851543463399     
 -0.12707653384228251     
 -0.12683631586325267     
 -0.12658259021074023     
 -0.12628864134371237     
 -0.12595331058374457     
 -0.12554919949525203     
 -0.12505504106687734     
 -0.12443048087692768     
 -0.12363070712154921     
 -0.12259077040888160     
 -0.12122303653892789     
 -0.11953228204319405     
 -0.11601757998365664     
 -0.11617068879688923     
 -0.12834305037746907     
 -0.12746151586070562     
 -0.12587841095061542     
 -0.12568162739637129     
 -0.12519361602123349     
 -0.12473926739301761     
 -0.12428119055344318     
 -0.12381322689746667     
 -0.12332343961844697     
 -0.12280348118096804     
 -0.12223345525194296     
 -0.12159408420999318     
 -0.12085676190826648     
 -0.11999199074591058     
 -0.11895085648858746     
 -0.11767362028898326     
 -0.11607539496829872     
 -0.11404998248728543     
 -0.11155351193205011     
 -0.10724947928290721     
 -0.10677452905169427     
 -0.12710896639446562     
 -0.12660487616084717     
 -0.12469891177211996     
 -0.12422613025996154     
 -0.12346957116972121     
 -0.12274699616263537     
 -0.12201560807810106     
 -0.12126895982571666     
 -0.12049502380062926     
 -0.11967443801987193     
 -0.11879035732642765     
 -0.11781100851698839     
 -0.11669848772796046     
 -0.11540236614469405     
 -0.11385948649453559     
 -0.11199184782125068     
 -0.10969679156349671     
 -0.10684102784035314     
 -0.10329722103924348     
  -9.7967506686587713E-002
  -9.7550301906656797E-002
 -0.12554434183182583     
 -0.12525831344898430     
 -0.12294186845232924     
 -0.12212742658646691     
 -0.12107013400910582     
 -0.12004300111901700     
 -0.11900997460310918     
 -0.11796190341625246     
 -0.11687861294557028     
 -0.11573386167830066     
 -0.11449398924779064     
 -0.11312051144566300     
 -0.11156177977238996     
 -0.10975500250984879     
 -0.10761466753052236     
 -0.10502791775912480     
 -0.10185403788191655     
  -9.8034357749450560E-002
  -9.3584843597377149E-002
  -8.7639097126874260E-002
  -8.7187089172837684E-002
 -0.12362940499908287     
 -0.12355751132944612     
 -0.12082640166589778     
 -0.11963393442364914     
 -0.11824615681744512     
 -0.11688543662437330     
 -0.11551834755707978     
 -0.11411943331810787     
 -0.11266278180786596     
 -0.11111596681499965     
 -0.10943631646043823     
 -0.10756885670683936     
 -0.10544069275392967     
 -0.10295769178261570     
 -0.10003814055411421     
  -9.6677661540583104E-002
  -9.2809447729512176E-002
  -8.8326886792201173E-002
  -8.2934061829737352E-002
  -7.5795766445100415E-002
  -7.5298185198241371E-002
 -0.12132203014557040     
 -0.12143911857539055     
 -0.11830201080363897     
 -0.11670417206127463     
 -0.11494463099688457     
 -0.11319405435279722     
 -0.11141893721814754     
 -0.10958956667078221     
 -0.10766929427373235     
 -0.10561045731245186     
 -0.10334922774519957     
 -0.10082394785838468     
  -9.8027102121098608E-002
  -9.4935721195491096E-002
  -9.1472486988536189E-002
  -8.7541094892745003E-002
  -8.2858310137050126E-002
  -7.7250611445073322E-002
  -7.0969354098188775E-002
  -6.3651431473427320E-002
  -6.3228466803965627E-002
 -0.11861536953754807     
 -0.11884893404887764     
 -0.11531826499148977     
 -0.11324524786499374     
 -0.11103030675861522     
 -0.10880089347345419     
 -0.10651349079924467     
 -0.10412340093272943     
 -0.10158288229746071     
  -9.8885993404437753E-002
  -9.6053881486141593E-002
  -9.3038149143058135E-002
  -8.9775608925593081E-002
  -8.6158057150793999E-002
  -8.1902233473377273E-002
  -7.7033975917052869E-002
  -7.1666693003358026E-002
  -6.5747983549136718E-002
  -5.9386239269111782E-002
  -5.1274254138137722E-002
  -5.0787456721782524E-002
 -0.11544285741045548     
 -0.11568390471155807     
 -0.11171947927643734     
 -0.10906892843954136     
 -0.10627742250960413     
 -0.10341532293103949     
 -0.10044836154057356     
  -9.7431302249945534E-002
  -9.4376278911782255E-002
  -9.1237920851009777E-002
  -8.7957441732951946E-002
  -8.4389697495958788E-002
  -8.0319886925464393E-002
  -7.5938205892588442E-002
  -7.1229919755012749E-002
  -6.6145035107169237E-002
  -6.0741365759728716E-002
  -5.4337629968823693E-002
  -4.7040791091992426E-002
  -3.8901880067266185E-002
  -3.8501204529638983E-002
 -0.11160031387915118     
 -0.11175810861744373     
 -0.10726246494501167     
 -0.10385978470941176     
 -0.10030246954289475     
  -9.6774523846056434E-002
  -9.3293518671073009E-002
  -8.9821971637735712E-002
  -8.6287221653497212E-002
  -8.2483803679692075E-002
  -7.8421458928568694E-002
  -7.4261080821200073E-002
  -6.9937699611676798E-002
  -6.5423258153457869E-002
  -6.0742004126648139E-002
  -5.5331894467582805E-002
  -4.9230901089801785E-002
  -4.2560723156874182E-002
  -3.5533682487835720E-002
  -2.7196926669380946E-002
  -2.6805448144647158E-002
 -0.10673254997583743     
 -0.10676809386347706     
 -0.10152931659405610     
  -9.7306815562743010E-002
  -9.3169389843891018E-002
  -8.9135060253556719E-002
  -8.5098473408669301E-002
  -8.0828488030748505E-002
  -7.6557051254911496E-002
  -7.2335744792776810E-002
  -6.8113577316202836E-002
  -6.3900071962858199E-002
  -5.9665306824866683E-002
  -5.4790053330232229E-002
  -4.9564035030390016E-002
  -4.3986385412543870E-002
  -3.8074643901261043E-002
  -3.1552276120386552E-002
  -2.4166551263793981E-002
  -1.6224183599958704E-002
  -1.6019130693503577E-002
 -0.10034582031265676     
 -0.10024759148118416     
  -9.4448918547869326E-002
  -8.9610600595098136E-002
  -8.4832676263656023E-002
  -7.9884027022545573E-002
  -7.5112497336230349E-002
  -7.0536839647627941E-002
  -6.6137958581683601E-002
  -6.1943428233454043E-002
  -5.7703484756555921E-002
  -5.3086047985390378E-002
  -4.8393187927545774E-002
  -4.3537939144597283E-002
  -3.8560914890893770E-002
  -3.3316914613030782E-002
  -2.7385660716414618E-002
  -2.0812234780090099E-002
  -1.3459938245117814E-002
  -5.7516254692684147E-003
  -5.7915296600377659E-003
  -9.2596130360285980E-002
  -9.2360759133332054E-002
  -8.6036453095501939E-002
  -8.0149591545767868E-002
  -7.4532690717628677E-002
  -6.9272906696967021E-002
  -6.4401643977888473E-002
  -5.9927132494130321E-002
  -5.5251246429882522E-002
  -5.0645980508746975E-002
  -4.6137923707940835E-002
  -4.1678977929447268E-002
  -3.7336146914452320E-002
  -3.2807113832316354E-002
  -2.7921664157718119E-002
  -2.2695300464532345E-002
  -1.7223051377148229E-002
  -1.0540110196105649E-002
   1.4722414266370734E-004
   5.6717921017413093E-004
   4.6878006043840051E-004
  -8.3009089581930928E-002
  -8.2688674305856538E-002
  -7.5424325233018674E-002
  -6.9072605738850365E-002
  -6.3335131619403434E-002
  -5.8118884528853484E-002
  -5.2847827453118168E-002
  -4.7920527617254488E-002
  -4.3247389635874066E-002
  -3.8902631632350658E-002
  -3.4847418158682628E-002
  -3.0602276313187415E-002
  -2.6325469661821133E-002
  -2.1967490034625121E-002
  -1.7604993321840224E-002
  -1.2632895226213442E-002
  -7.7777008663300982E-003
   1.3265912386283395E-004
   8.8987491458722271E-004
   1.4944733875083397E-003
   1.6134208903830071E-003
  -7.1271482248254886E-002
  -7.0910174570649756E-002
  -6.3549910807293553E-002
  -5.7145710931540056E-002
  -5.0935364296215500E-002
  -4.5277664478202390E-002
  -4.0211721287923795E-002
  -3.5792741445569085E-002
  -3.1342473292120795E-002
  -2.7090731759844697E-002
  -2.3170411081809957E-002
  -1.9450515557278662E-002
  -1.5707403484851046E-002
  -1.1612312837582387E-002
  -7.6929604556681764E-003
   2.2318979685999966E-006
   3.5750196013580976E-004
   8.7794487999648548E-004
   1.8959530143227968E-003
   2.4623872526942023E-003
   2.2385817863710819E-003
  -5.8431932700026827E-002
  -5.8132446953106147E-002
  -5.0251014215294994E-002
  -4.3394601236144803E-002
  -3.7490741091170655E-002
  -3.2152693038537218E-002
  -2.7349068898999636E-002
  -2.3054592781006036E-002
  -1.9064185682858364E-002
  -1.4992190989304682E-002
  -1.1829672214765542E-002
  -8.9109934834435030E-003
  -5.6359326369422296E-003
   1.3243416695879489E-004
   4.5513599972617799E-004
   7.9920014549816930E-004
   1.2844099608153520E-003
   2.0176036868788470E-003
   3.0432635153147471E-003
   3.2525315336572719E-003
   2.7597673944314526E-003
  -4.3283671251615953E-002
  -4.3046616264817580E-002
  -3.5647264195233612E-002
  -2.9088253281780958E-002
  -2.3340226042047277E-002
  -1.8043892369844633E-002
  -1.4085503476933128E-002
  -1.0582787801032587E-002
  -7.1641884818340338E-003
   3.9829334190763395E-005
   2.9612924008301153E-004
   5.7376742670202992E-004
   8.3057818144206103E-004
   1.1416497455665542E-003
   1.6126504086757952E-003
   2.1333053916503938E-003
   2.6576213017553891E-003
   3.2160744655110869E-003
   4.1759929411338548E-003
   4.0714494337742062E-003
   3.2946938389210858E-003
  -2.7085381031748675E-002
  -2.6785064963247378E-002
  -1.9523877379397123E-002
  -1.4062254154924170E-002
  -9.0563203350726377E-003
   7.1521546822783053E-005
   3.9517778324058597E-004
   7.1277263816159114E-004
   9.8980386634979359E-004
   1.2667660914280998E-003
   1.6231706842455979E-003
   2.0520409302141876E-003
   2.4505730630130181E-003
   2.8328417323182590E-003
   3.1987399657363992E-003
   3.5808098724122482E-003
   4.0254170935283603E-003
   4.5373225858235996E-003
   5.5040560346004876E-003
   5.0009233831336151E-003
   3.8399687355337169E-003
  -8.4838469341276482E-003
  -5.9013776966086286E-003
   4.5753083671098424E-004
   1.0646585870610868E-003
   1.5423542093104474E-003
   1.9670502550770963E-003
   2.4579658886741958E-003
   2.9784189775514829E-003
   3.4195674192528023E-003
   3.8142663064446580E-003
   4.1488469630774384E-003
   4.4446189033656271E-003
   4.7349593643516924E-003
   5.0339741105160981E-003
   5.3559583746500099E-003
   5.7167613171932212E-003
   6.1452099692064621E-003
   6.6497431314187193E-003
   7.6119443492353896E-003
   6.3562101775408381E-003
   4.5252172419779748E-003
   3.2686084797574171E-003
   3.0068617988498448E-003
   4.2079673281821941E-003
   5.1136563637756748E-003
   5.4819322590397880E-003
   5.6790167588652530E-003
   5.7702893617000706E-003
   5.8187804641916694E-003
   5.8713479142984606E-003
   5.9383049207414919E-003
   6.0229494948708766E-003
   6.1278905188088062E-003
   6.2551165981055527E-003
   6.4075880501350520E-003
   6.5917269183629716E-003
   6.8174015083319424E-003
   7.1008820955486282E-003
   7.4596516720287628E-003
   8.0549036707768824E-003
   7.9232985015912135E-003
   5.9961400946586503E-003
   4.9059380916616985E-003
   5.4448105251868511E-003
   7.1742660831945635E-003
   8.4179376407143673E-003
   8.2250677922070230E-003
   7.8766208541611506E-003
   7.4961688209191843E-003
   7.1666229437661053E-003
   6.9006154372179265E-003
   6.6970691011044910E-003
   6.5503790103529844E-003
   6.4561129249008043E-003
   6.4107910580284049E-003
   6.4109487282242097E-003
   6.4544650051101514E-003
   6.5422009945073018E-003
   6.6788746240934796E-003
   6.8753092614052425E-003
   7.1783968452108311E-003
   7.5490890707238982E-003
   7.7316676866150567E-003
 -0.12534083164538276     
 -0.12449273838490771     
 -0.12419965213857588     
 -0.12401182613434510     
 -0.12381294968567493     
 -0.12362540127547354     
 -0.12343222313649786     
 -0.12323242303373232     
 -0.12303639108597333     
 -0.12281068142941114     
 -0.12256247360343782     
 -0.12228239920308105     
 -0.12194691570358408     
 -0.12153920827518314     
 -0.12102806145957652     
 -0.12036626925127200     
 -0.11950094056244132     
 -0.11833802777864223     
 -0.11701883829662761     
 -0.11367497246522409     
 -0.11322152608498044     
 -0.12382897941720197     
 -0.12343462826342252     
 -0.12229998889351056     
 -0.12229384407673645     
 -0.12208905157094513     
 -0.12189111454396138     
 -0.12168531641209657     
 -0.12147322843698542     
 -0.12123262902012467     
 -0.12097810877986408     
 -0.12068299329837286     
 -0.12034600193944711     
 -0.11993968451085880     
 -0.11944249482468283     
 -0.11881374697576144     
 -0.11800802096452269     
 -0.11695973845314006     
 -0.11558163203597392     
 -0.11387828528133177     
 -0.11035227110051900     
 -0.11060925226300487     
 -0.12262202860730294     
 -0.12186345446851905     
 -0.12027872764306895     
 -0.12008313969105655     
 -0.11959543894292644     
 -0.11914080004912474     
 -0.11868194487915407     
 -0.11821269964021139     
 -0.11772108402065203     
 -0.11719864741293751     
 -0.11662536212299081     
 -0.11598168593048414     
 -0.11523874350344988     
 -0.11436684472918124     
 -0.11331747848470809     
 -0.11203109319733452     
 -0.11042259178918520     
 -0.10838597519538463     
 -0.10587705272919889     
 -0.10156635896697330     
 -0.10119309179841458     
 -0.12139025031196551     
 -0.12100826239765002     
 -0.11910088650778265     
 -0.11862820614580483     
 -0.11787052595008182     
 -0.11714593567295563     
 -0.11641180513104442     
 -0.11566152893413746     
 -0.11488293188703276     
 -0.11405657691411182     
 -0.11316574662261680     
 -0.11217913467086396     
 -0.11105886045698746     
 -0.10975427837848231     
 -0.10820215315681821     
 -0.10632465160528147     
 -0.10401965836569152     
 -0.10115511359101358     
  -9.7602905872317305E-002
  -9.2260623115187540E-002
  -9.1937341609502343E-002
 -0.11982651840010233     
 -0.11965988776045962     
 -0.11734173436880409     
 -0.11652515440227561     
 -0.11546448596606013     
 -0.11443266704827822     
 -0.11339377933877762     
 -0.11233897884057188     
 -0.11124870888789438     
 -0.11009675992314814     
 -0.10884928821047371     
 -0.10746769625292273     
 -0.10590038623141350     
 -0.10408480996248098     
 -0.10193598786495231     
  -9.9341820841202716E-002
  -9.6158936064905554E-002
  -9.2319031429811862E-002
  -8.7845511636214027E-002
  -8.1885528908741345E-002
  -8.1515167615432274E-002
 -0.11790938387201315     
 -0.11795347232473771     
 -0.11521916060023649     
 -0.11402100143593269     
 -0.11262647361848108     
 -0.11125849457457372     
 -0.10988421204266136     
 -0.10847796751632584     
 -0.10701372374381386     
 -0.10545906512880342     
 -0.10377149682298249     
 -0.10189633518389035     
  -9.9761092418630848E-002
  -9.7270908803280556E-002
  -9.4337743128277918E-002
  -9.0956819769620861E-002
  -8.7067035253733799E-002
  -8.2563315232518947E-002
  -7.7163049724290431E-002
  -7.0004172701386938E-002
  -6.9572992311671675E-002
 -0.11559462706996816     
 -0.11582440037345539     
 -0.11268038270969892     
 -0.11107413875075740     
 -0.10930707892508898     
 -0.10754886222045726     
 -0.10576606204289551     
 -0.10392912876604074     
 -0.10200163998110892     
  -9.9936159946642220E-002
  -9.7668525650336430E-002
  -9.5133281811731460E-002
  -9.2318651024487483E-002
  -8.9207967915168551E-002
  -8.5724409237526389E-002
  -8.1774693246861624E-002
  -7.7085985015585792E-002
  -7.1451560826147439E-002
  -6.5138879316009743E-002
  -5.7793743789997791E-002
  -5.7413741752062646E-002
 -0.11287410379029822     
 -0.11321729775069897     
 -0.10967832759398231     
 -0.10759653440005573     
 -0.10537374857789114     
 -0.10313688133830404     
 -0.10084278669981386     
  -9.8446794669291002E-002
  -9.5898842210761434E-002
  -9.3186872158509376E-002
  -9.0336593993622649E-002
  -8.7302190567566593E-002
  -8.4020774750426894E-002
  -8.0389276161336981E-002
  -7.6126656587532968E-002
  -7.1231903378189243E-002
  -6.5836993419468262E-002
  -5.9888311226017281E-002
  -5.3499302324176608E-002
  -4.5377330488732638E-002
  -4.4923894093501011E-002
 -0.10968577710800728     
 -0.11003255405960519     
 -0.10605945780401377     
 -0.10340054295222305     
 -0.10060257579211987     
  -9.7734871783806201E-002
  -9.4758088337320370E-002
  -9.1723171186081129E-002
  -8.8649761333833274E-002
  -8.5492860572447607E-002
  -8.2195964622948384E-002
  -7.8620180102133203E-002
  -7.4536162983010662E-002
  -7.0129742580835264E-002
  -6.5396658891956824E-002
  -6.0285001590792378E-002
  -5.4853819999606770E-002
  -4.8439440992799378E-002
  -4.1119124566434302E-002
  -3.2962584150390828E-002
  -3.2577561396414399E-002
 -0.10582693717289904     
 -0.10608423106134017     
 -0.10158222583527275     
  -9.8173546521200153E-002
  -9.4605437346246629E-002
  -9.1058275234937855E-002
  -8.7558014010611335E-002
  -8.4067914708171571E-002
  -8.0519963910383033E-002
  -7.6711977002755061E-002
  -7.2627124445100333E-002
  -6.8443668763608773E-002
  -6.4097416841382551E-002
  -5.9558159755080310E-002
  -5.4852977179218207E-002
  -4.9433954526112892E-002
  -4.3312597881235142E-002
  -3.6623258586033353E-002
  -2.9580904409575694E-002
  -2.1234207704738179E-002
  -2.0852174540648891E-002
 -0.10094399289474221     
 -0.10107233472630923     
  -9.5827229893100413E-002
  -9.1584007873604253E-002
  -8.7425950254802168E-002
  -8.3372445318801336E-002
  -7.9325646388562196E-002
  -7.5044974229222239E-002
  -7.0750229803215464E-002
  -6.6506889661459456E-002
  -6.2262445811967437E-002
  -5.8025945779136064E-002
  -5.3773269512179006E-002
  -4.8888963998152873E-002
  -4.3645479418323058E-002
  -3.8051053604252490E-002
  -3.2121606796306962E-002
  -2.5588677974299815E-002
  -1.8191725747773599E-002
  -1.0243340568292885E-002
  -1.0041939322753983E-002
  -9.4533944993849095E-002
  -9.4518395578312139E-002
  -8.8699726096309273E-002
  -8.3839713789395323E-002
  -7.9051900597922692E-002
  -7.4088328552340987E-002
  -6.9293689484201129E-002
  -6.4695712970804189E-002
  -6.0273674366499191E-002
  -5.6057518062482839E-002
  -5.1812923845848104E-002
  -4.7178336995616063E-002
  -4.2470020620104340E-002
  -3.7600575736074525E-002
  -3.2608699678391549E-002
  -2.7355774285923576E-002
  -2.1413973516361644E-002
  -1.4827254698464389E-002
  -7.4722516239707354E-003
   2.0988861675210843E-004
   1.7375762555011648E-004
  -8.6748902190544874E-002
  -8.6579837548897823E-002
  -8.0243554847255524E-002
  -7.4343094419975914E-002
  -6.8702690906688541E-002
  -6.3419817162517961E-002
  -5.8524530348503946E-002
  -5.4031217886518844E-002
  -4.9348462488046835E-002
  -4.4728497990337950E-002
  -4.0207411288538095E-002
  -3.5735093524950440E-002
  -3.1379872927135032E-002
  -2.6844645211010466E-002
  -2.1950875183306330E-002
  -1.6717127436916876E-002
  -1.1237098439398486E-002
  -4.5523848617140903E-003
   5.9756265712545571E-003
   6.5845493933640465E-003
   6.4642341769239643E-003
  -7.7138584757715747E-002
  -7.6872559335269097E-002
  -6.9585223873462165E-002
  -6.3208875347044724E-002
  -5.7446360690940029E-002
  -5.2221751425332530E-002
  -4.6934312457364478E-002
  -4.1992934233778222E-002
  -3.7306547477888544E-002
  -3.2949660889293991E-002
  -2.8888046854482541E-002
  -2.4635830210358343E-002
  -2.0352849338433267E-002
  -1.5988722752037592E-002
  -1.1618529719539930E-002
  -6.6427626471500800E-003
  -1.7898417105947509E-003
   6.0150106324293453E-003
   6.8918527528481176E-003
   7.5946125824092672E-003
   7.6822441893738278E-003
  -6.5360943858743456E-002
  -6.5035694726421747E-002
  -5.7652500141212003E-002