# vtk DataFile Version 2.0
3D Unstructured Grid of Linear Triangles
ASCII
DATASET UNSTRUCTURED_GRID
FIELD FieldData  1
TIME 1 1 double
        1807.87920
POINTS     7056 float
      0.00000000E+00  1.00000000E+01  1.00000000E+00
      5.00000000E-01  1.00000000E+01  9.93333333E-01
      1.00000000E+00  1.00000000E+01  9.83333333E-01
      1.50000000E+00  1.00000000E+01  9.73333333E-01
      2.00000000E+00  1.00000000E+01  9.63333333E-01
      2.50000000E+00  1.00000000E+01  9.53333333E-01
      3.00000000E+00  1.00000000E+01  9.43333333E-01
      3.50000000E+00  1.00000000E+01  9.33333333E-01
      4.00000000E+00  1.00000000E+01  9.23333333E-01
      4.50000000E+00  1.00000000E+01  9.13333333E-01
      5.00000000E+00  1.00000000E+01  9.03333333E-01
      5.50000000E+00  1.00000000E+01  8.93333333E-01
      6.00000000E+00  1.00000000E+01  8.83333333E-01
      6.50000000E+00  1.00000000E+01  8.73333333E-01
      7.00000000E+00  1.00000000E+01  8.63333333E-01
      7.50000000E+00  1.00000000E+01  8.53333333E-01
      8.00000000E+00  1.00000000E+01  8.43333333E-01
      8.50000000E+00  1.00000000E+01  8.33333333E-01
      9.00000000E+00  1.00000000E+01  8.23333333E-01
      9.50000000E+00  1.00000000E+01  8.13333333E-01
      1.00000000E+01  1.00000000E+01  8.10000000E-01
      0.00000000E+00  9.50000000E+00  9.83333333E-01
      5.00000000E-01  9.50000000E+00  9.82500000E-01
      1.00000000E+00  9.50000000E+00  9.72500000E-01
      1.50000000E+00  9.50000000E+00  9.62500000E-01
      2.00000000E+00  9.50000000E+00  9.52500000E-01
      2.50000000E+00  9.50000000E+00  9.42500000E-01
      3.00000000E+00  9.50000000E+00  9.32500000E-01
      3.50000000E+00  9.50000000E+00  9.22500000E-01
      4.00000000E+00  9.50000000E+00  9.12500000E-01
      4.50000000E+00  9.50000000E+00  9.02500000E-01
      5.00000000E+00  9.50000000E+00  8.92500000E-01
      5.50000000E+00  9.50000000E+00  8.82500000E-01
      6.00000000E+00  9.50000000E+00  8.72500000E-01
      6.50000000E+00  9.50000000E+00  8.62500000E-01
      7.00000000E+00  9.50000000E+00  8.52500000E-01
      7.50000000E+00  9.50000000E+00  8.42500000E-01
      8.00000000E+00  9.50000000E+00  8.32500000E-01
      8.50000000E+00  9.50000000E+00  8.22500000E-01
      9.00000000E+00  9.50000000E+00  8.12500000E-01
      9.50000000E+00  9.50000000E+00  8.02500000E-01
      1.00000000E+01  9.50000000E+00  8.01666667E-01
      0.00000000E+00  9.00000000E+00  9.58333333E-01
      5.00000000E-01  9.00000000E+00  9.57500000E-01
      1.00000000E+00  9.00000000E+00  9.47500000E-01
      1.50000000E+00  9.00000000E+00  9.37500000E-01
      2.00000000E+00  9.00000000E+00  9.27500000E-01
      2.50000000E+00  9.00000000E+00  9.17500000E-01
      3.00000000E+00  9.00000000E+00  9.07500000E-01
      3.50000000E+00  9.00000000E+00  8.97500000E-01
      4.00000000E+00  9.00000000E+00  8.87500000E-01
      4.50000000E+00  9.00000000E+00  8.77500000E-01
      5.00000000E+00  9.00000000E+00  8.67500000E-01
      5.50000000E+00  9.00000000E+00  8.57500000E-01
      6.00000000E+00  9.00000000E+00  8.47500000E-01
      6.50000000E+00  9.00000000E+00  8.37500000E-01
      7.00000000E+00  9.00000000E+00  8.27500000E-01
      7.50000000E+00  9.00000000E+00  8.17500000E-01
      8.00000000E+00  9.00000000E+00  8.07500000E-01
      8.50000000E+00  9.00000000E+00  7.97500000E-01
      9.00000000E+00  9.00000000E+00  7.87500000E-01
      9.50000000E+00  9.00000000E+00  7.77500000E-01
      1.00000000E+01  9.00000000E+00  7.76666667E-01
      0.00000000E+00  8.50000000E+00  9.33333333E-01
      5.00000000E-01  8.50000000E+00  9.32500000E-01
      1.00000000E+00  8.50000000E+00  9.22500000E-01
      1.50000000E+00  8.50000000E+00  9.12500000E-01
      2.00000000E+00  8.50000000E+00  9.02500000E-01
      2.50000000E+00  8.50000000E+00  8.92500000E-01
      3.00000000E+00  8.50000000E+00  8.82500000E-01
      3.50000000E+00  8.50000000E+00  8.72500000E-01
      4.00000000E+00  8.50000000E+00  8.62500000E-01
      4.50000000E+00  8.50000000E+00  8.52500000E-01
      5.00000000E+00  8.50000000E+00  8.42500000E-01
      5.50000000E+00  8.50000000E+00  8.32500000E-01
      6.00000000E+00  8.50000000E+00  8.22500000E-01
      6.50000000E+00  8.50000000E+00  8.12500000E-01
      7.00000000E+00  8.50000000E+00  8.02500000E-01
      7.50000000E+00  8.50000000E+00  7.92500000E-01
      8.00000000E+00  8.50000000E+00  7.82500000E-01
      8.50000000E+00  8.50000000E+00  7.72500000E-01
      9.00000000E+00  8.50000000E+00  7.62500000E-01
      9.50000000E+00  8.50000000E+00  7.52500000E-01
      1.00000000E+01  8.50000000E+00  7.51666667E-01
      0.00000000E+00  8.00000000E+00  9.08333333E-01
      5.00000000E-01  8.00000000E+00  9.07500000E-01
      1.00000000E+00  8.00000000E+00  8.97500000E-01
      1.50000000E+00  8.00000000E+00  8.87500000E-01
      2.00000000E+00  8.00000000E+00  8.77500000E-01
      2.50000000E+00  8.00000000E+00  8.67500000E-01
      3.00000000E+00  8.00000000E+00  8.57500000E-01
      3.50000000E+00  8.00000000E+00  8.47500000E-01
      4.00000000E+00  8.00000000E+00  8.37500000E-01
      4.50000000E+00  8.00000000E+00  8.27500000E-01
      5.00000000E+00  8.00000000E+00  8.17500000E-01
      5.50000000E+00  8.00000000E+00  8.07500000E-01
      6.00000000E+00  8.00000000E+00  7.97500000E-01
      6.50000000E+00  8.00000000E+00  7.87500000E-01
      7.00000000E+00  8.00000000E+00  7.77500000E-01
      7.50000000E+00  8.00000000E+00  7.67500000E-01
      8.00000000E+00  8.00000000E+00  7.57500000E-01
      8.50000000E+00  8.00000000E+00  7.47500000E-01
      9.00000000E+00  8.00000000E+00  7.37500000E-01
      9.50000000E+00  8.00000000E+00  7.27500000E-01
      1.00000000E+01  8.00000000E+00  7.26666667E-01
      0.00000000E+00  7.50000000E+00  8.83333333E-01
      5.00000000E-01  7.50000000E+00  8.82500000E-01
      1.00000000E+00  7.50000000E+00  8.72500000E-01
      1.50000000E+00  7.50000000E+00  8.62500000E-01
      2.00000000E+00  7.50000000E+00  8.52500000E-01
      2.50000000E+00  7.50000000E+00  8.42500000E-01
      3.00000000E+00  7.50000000E+00  8.32500000E-01
      3.50000000E+00  7.50000000E+00  8.22500000E-01
      4.00000000E+00  7.50000000E+00  8.12500000E-01
      4.50000000E+00  7.50000000E+00  8.02500000E-01
      5.00000000E+00  7.50000000E+00  7.92500000E-01
      5.50000000E+00  7.50000000E+00  7.82500000E-01
      6.00000000E+00  7.50000000E+00  7.72500000E-01
      6.50000000E+00  7.50000000E+00  7.62500000E-01
      7.00000000E+00  7.50000000E+00  7.52500000E-01
      7.50000000E+00  7.50000000E+00  7.42500000E-01
      8.00000000E+00  7.50000000E+00  7.32500000E-01
      8.50000000E+00  7.50000000E+00  7.22500000E-01
      9.00000000E+00  7.50000000E+00  7.12500000E-01
      9.50000000E+00  7.50000000E+00  7.02500000E-01
      1.00000000E+01  7.50000000E+00  7.01666667E-01
      0.00000000E+00  7.00000000E+00  8.58333333E-01
      5.00000000E-01  7.00000000E+00  8.57500000E-01
      1.00000000E+00  7.00000000E+00  8.47500000E-01
      1.50000000E+00  7.00000000E+00  8.37500000E-01
      2.00000000E+00  7.00000000E+00  8.27500000E-01
      2.50000000E+00  7.00000000E+00  8.17500000E-01
      3.00000000E+00  7.00000000E+00  8.07500000E-01
      3.50000000E+00  7.00000000E+00  7.97500000E-01
      4.00000000E+00  7.00000000E+00  7.87500000E-01
      4.50000000E+00  7.00000000E+00  7.77500000E-01
      5.00000000E+00  7.00000000E+00  7.67500000E-01
      5.50000000E+00  7.00000000E+00  7.57500000E-01
      6.00000000E+00  7.00000000E+00  7.47500000E-01
      6.50000000E+00  7.00000000E+00  7.37500000E-01
      7.00000000E+00  7.00000000E+00  7.27500000E-01
      7.50000000E+00  7.00000000E+00  7.17500000E-01
      8.00000000E+00  7.00000000E+00  7.07500000E-01
      8.50000000E+00  7.00000000E+00  6.97500000E-01
      9.00000000E+00  7.00000000E+00  6.87500000E-01
      9.50000000E+00  7.00000000E+00  6.77500000E-01
      1.00000000E+01  7.00000000E+00  6.76666667E-01
      0.00000000E+00  6.50000000E+00  8.33333333E-01
      5.00000000E-01  6.50000000E+00  8.32500000E-01
      1.00000000E+00  6.50000000E+00  8.22500000E-01
      1.50000000E+00  6.50000000E+00  8.12500000E-01
      2.00000000E+00  6.50000000E+00  8.02500000E-01
      2.50000000E+00  6.50000000E+00  7.92500000E-01
      3.00000000E+00  6.50000000E+00  7.82500000E-01
      3.50000000E+00  6.50000000E+00  7.72500000E-01
      4.00000000E+00  6.50000000E+00  7.62500000E-01
      4.50000000E+00  6.50000000E+00  7.52500000E-01
      5.00000000E+00  6.50000000E+00  7.42500000E-01
      5.50000000E+00  6.50000000E+00  7.32500000E-01
      6.00000000E+00  6.50000000E+00  7.22500000E-01
      6.50000000E+00  6.50000000E+00  7.12500000E-01
      7.00000000E+00  6.50000000E+00  7.02500000E-01
      7.50000000E+00  6.50000000E+00  6.92500000E-01
      8.00000000E+00  6.50000000E+00  6.82500000E-01
      8.50000000E+00  6.50000000E+00  6.72500000E-01
      9.00000000E+00  6.50000000E+00  6.62500000E-01
      9.50000000E+00  6.50000000E+00  6.52500000E-01
      1.00000000E+01  6.50000000E+00  6.51666667E-01
      0.00000000E+00  6.00000000E+00  8.08333333E-01
      5.00000000E-01  6.00000000E+00  8.07500000E-01
      1.00000000E+00  6.00000000E+00  7.97500000E-01
      1.50000000E+00  6.00000000E+00  7.87500000E-01
      2.00000000E+00  6.00000000E+00  7.77500000E-01
      2.50000000E+00  6.00000000E+00  7.67500000E-01
      3.00000000E+00  6.00000000E+00  7.57500000E-01
      3.50000000E+00  6.00000000E+00  7.47500000E-01
      4.00000000E+00  6.00000000E+00  7.37500000E-01
      4.50000000E+00  6.00000000E+00  7.27500000E-01
      5.00000000E+00  6.00000000E+00  7.17500000E-01
      5.50000000E+00  6.00000000E+00  7.07500000E-01
      6.00000000E+00  6.00000000E+00  6.97500000E-01
      6.50000000E+00  6.00000000E+00  6.87500000E-01
      7.00000000E+00  6.00000000E+00  6.77500000E-01
      7.50000000E+00  6.00000000E+00  6.67500000E-01
      8.00000000E+00  6.00000000E+00  6.57500000E-01
[...]
POINT_DATA     7056
SCALARS pressure float
LOOKUP_TABLE default
 -0.13661568946777422     
 -0.13575266805825917     
 -0.13548939439801533     
 -0.13533619041204117     
 -0.13514659831318288     
 -0.13499328416880460     
 -0.13484062405889755     
 -0.13464940034081166     
 -0.13448449428709708     
 -0.13428231768846308     
 -0.13406223103031906     
 -0.13379915942300724     
 -0.13348256510537179     
 -0.13309528474482368     
 -0.13259916834684465     
 -0.13195293457666854     
 -0.13109816870804977     
 -0.12992341390418263     
 -0.12859026880976770     
 -0.12514511892563845     
 -0.12455054218683331     
 -0.13510218367726667     
 -0.13461076223957938     
 -0.13347490703356441     
 -0.13353782309903536     
 -0.13335299091759822     
 -0.13318506747783326     
 -0.13300847249772030     
 -0.13282033835839976     
 -0.13261502365555713     
 -0.13237001192855333     
 -0.13209625385050414     
 -0.13177715869241266     
 -0.13138233269382646     
 -0.13089151794031109     
 -0.13026679521411400     
 -0.12945914739641687     
 -0.12839502740694581     
 -0.12698315963149578     
 -0.12525692626479887     
 -0.12169255688246747     
 -0.12184048146762584     
 -0.13401325282959478     
 -0.13313878935548604     
 -0.13158978076571107     
 -0.13147968885625436     
 -0.13102628197781810     
 -0.13061261186536857     
 -0.13019452794935835     
 -0.12975263904244394     
 -0.12928650978745701     
 -0.12877763202095255     
 -0.12821460612675140     
 -0.12756935243358350     
 -0.12681995413529051     
 -0.12591835059072645     
 -0.12482914161639148     
 -0.12349714977920412     
 -0.12184645033451739     
 -0.11977805881712998     
 -0.11727641058588903     
 -0.11299751807825979     
 -0.11251132790762779     
 -0.13294304684783309     
 -0.13243104605551365     
 -0.13057492593080980     
 -0.13019751737078777     
 -0.12948636856614024     
 -0.12880846377529565     
 -0.12810694180531190     
 -0.12737676125110947     
 -0.12660299869990368     
 -0.12577141871169081     
 -0.12485466524566563     
 -0.12383021131338627     
 -0.12266516767119143     
 -0.12131464881007020     
 -0.11971889080306511     
 -0.11780238181712756     
 -0.11548191676695112     
 -0.11265110843146270     
 -0.10923955215174931     
 -0.10405555000097345     
 -0.10361895937624326     
 -0.13153536204668831     
 -0.13119597654409673     
 -0.12895006709168810     
 -0.12822408903916541     
 -0.12721243111978678     
 -0.12621090916353944     
 -0.12518580162094775     
 -0.12412331457938934     
 -0.12300672397871479     
 -0.12182051857066738     
 -0.12053742237013378     
 -0.11911552109265484     
 -0.11750620876017749     
 -0.11565405569745808     
 -0.11348768148444040     
 -0.11091728804812960     
 -0.10782603788644132     
 -0.10404964985067387     
  -9.9544289209678116E-002
  -9.3559442885655042E-002
  -9.3095418132203372E-002
 -0.12975763130210355     
 -0.12958933691570476     
 -0.12693120804511895     
 -0.12580391480755043     
 -0.12443178813066540     
 -0.12306583427611736     
 -0.12167823754197268     
 -0.12025324789151608     
 -0.11876634109692064     
 -0.11718352304319464     
 -0.11546794621236330     
 -0.11357069890753883     
 -0.11143200434197954     
 -0.10897228105713537     
 -0.10608618222545907     
 -0.10264509870251777     
  -9.8640937346089475E-002
  -9.4065033410270601E-002
  -8.8846315232558398E-002
  -8.1988359271330927E-002
  -8.1453040506428348E-002
 -0.12752063489364265     
 -0.12750956572195130     
 -0.12441419959897014     
 -0.12284278562623410     
 -0.12108196742605322     
 -0.11932730002215983     
 -0.11754058689243087     
 -0.11569711275345229     
 -0.11376609978377480     
 -0.11170579513756405     
 -0.10946395302478740     
 -0.10696812882511526     
 -0.10412545592575212     
 -0.10087509142756584     
  -9.7240805411723780E-002
  -9.3163424699417366E-002
  -8.8563568165082013E-002
  -8.3135487708689823E-002
  -7.6703573392785843E-002
  -6.9128259214095183E-002
  -6.8606624856951626E-002
 -0.12473528309008138     
 -0.12486923642717369     
 -0.12134539644975458     
 -0.11930201147926502     
 -0.11710085561866450     
 -0.11488532342008576     
 -0.11261976854220783     
 -0.11026680504616716     
 -0.10778030298279649     
 -0.10509070851850791     
 -0.10213817749608532     
  -9.8944587758394431E-002
  -9.5497995059132243E-002
  -9.1736502565505945E-002
  -8.7575547711987944E-002
  -8.2706925238032081E-002
  -7.7094044787501745E-002
  -7.0917472950872501E-002
  -6.4166920687206946E-002
  -5.6450339246321028E-002
  -5.5964407325349755E-002
 -0.12139463902490576     
 -0.12158921293339370     
 -0.11763331739768740     
 -0.11503351458424171     
 -0.11229769245426327     
 -0.10951492433768267     
 -0.10663202008729832     
 -0.10358792333682375     
 -0.10038414727701626     
  -9.7074492295359485E-002
  -9.3620682712203140E-002
  -8.9975358542565359E-002
  -8.6022405465662949E-002
  -8.1462084189400999E-002
  -7.6456493292817410E-002
  -7.1043799311770850E-002
  -6.5194600567418659E-002
  -5.9002560120248383E-002
  -5.1498431297249320E-002
  -4.3076628511518437E-002
  -4.2552212110658655E-002
 -0.11736086719662488     
 -0.11750093551071117     
 -0.11305810382948260     
 -0.10977724187200885     
 -0.10634178397518432     
 -0.10278015135490287     
  -9.9158432871303881E-002
  -9.5529889954783828E-002
  -9.1862122915695010E-002
  -8.8106398480286577E-002
  -8.4074011404971671E-002
  -7.9626984584146202E-002
  -7.4988818896544338E-002
  -7.0102423162717448E-002
  -6.4956510674190698E-002
  -5.9607873152276523E-002
  -5.3273642316441688E-002
  -4.6311910943379005E-002
  -3.8778332661738885E-002
  -3.0443946004956514E-002
  -2.9989451373410060E-002
 -0.11233470594019655     
 -0.11234804760269824     
 -0.10726352284680916     
 -0.10305782342635944     
  -9.8802759095269296E-002
  -9.4631767313661269E-002
  -9.0523718558188151E-002
  -8.6402310142731531E-002
  -8.2003138500037154E-002
  -7.7493558156055450E-002
  -7.2955159649324683E-002
  -6.8329348247692642E-002
  -6.3651615567747136E-002
  -5.8871977976079466E-002
  -5.3331820109774386E-002
  -4.7413683197963533E-002
  -4.1047547692784958E-002
  -3.4328689358986385E-002
  -2.6537220967683708E-002
  -1.8143584668088828E-002
  -1.7768987151050727E-002
 -0.10576951527938981     
 -0.10564402748785277     
  -9.9737913422463284E-002
  -9.4786921285329326E-002
  -8.9978859063249511E-002
  -8.5218756687311978E-002
  -8.0253349119309522E-002
  -7.5410117026928652E-002
  -7.0682028913256270E-002
  -6.6061190519443980E-002
  -6.1589162289491059E-002
  -5.6924088215131174E-002
  -5.1894490971264855E-002
  -4.6696882127776160E-002
  -4.1272790971436109E-002
  -3.5798444723105435E-002
  -2.9495713573366614E-002
  -2.2490494266005009E-002
  -1.4526825322057702E-002
  -5.2960937597964610E-003
  -5.1047512378470574E-003
  -9.7349620049525201E-002
  -9.7085178372519010E-002
  -9.0708862436112855E-002
  -8.5054704294460298E-002
  -7.9271067417209892E-002
  -7.3772570915446506E-002
  -6.8549214445138715E-002
  -6.3664427642171853E-002
  -5.9077318838861310E-002
  -5.4190773248126940E-002
  -4.9367121491388527E-002
  -4.4530816452249128E-002
  -3.9716075164088434E-002
  -3.4992973290657037E-002
  -2.9762054762975047E-002
  -2.4183572583906177E-002
  -1.8344905282908129E-002
  -1.1236902611470690E-002
   4.5536407398973072E-004
   1.2047195246700246E-003
   9.5118505160862114E-004
  -8.7332572686486476E-002
  -8.6971432999554496E-002
  -7.9626393393728664E-002
  -7.3088516691947811E-002
  -6.7017242670623214E-002
  -6.1543001026820490E-002
  -5.6259289905917727E-002
  -5.1045935494831267E-002
  -4.6070115671874461E-002
  -4.1349739048423935E-002
  -3.6937704038848926E-002
  -3.2431590316332103E-002
  -2.7752397530997206E-002
  -2.3137122567170498E-002
  -1.8447480780192149E-002
  -1.3134279835013755E-002
  -7.9817587867946418E-003
   4.4269937572602273E-004
   2.0656444685483158E-003
   3.0823918615147171E-003
   2.9768272657359866E-003
  -7.4703637109707496E-002
  -7.4291837589895771E-002
  -6.6684735808694801E-002
  -6.0168540444841601E-002
  -5.3817620450501147E-002
  -4.7936869018045385E-002
  -4.2548842309315445E-002
  -3.7658985859908588E-002
  -3.3010735872182957E-002
  -2.8540913864382584E-002
  -2.4312996590517198E-002
  -2.0104597210920731E-002
  -1.5558015273817160E-002
  -1.1719556410518819E-002
  -7.6058967648984918E-003
   2.8294374464679054E-004
   1.0727157367541316E-003
   2.0623762446415833E-003
   4.1443212386814742E-003
   4.8051043246468772E-003
   4.0190585437456230E-003
  -6.0713391387526877E-002
  -6.0400598708691369E-002
  -5.2475662507763282E-002
  -4.5397464906941520E-002
  -3.9144595294477301E-002
  -3.3698013750304151E-002
  -2.8622276046160754E-002
  -2.3911107628183301E-002
  -1.9243963164694199E-002
  -1.5320906343630309E-002
  -1.1881131451733274E-002
  -8.1120599735854861E-003
   7.0390939489317649E-005
   6.5504064607217532E-004
   1.2679664202739146E-003
   2.0205429638063201E-003
   3.2009360671821502E-003
   4.4190101425152766E-003
   6.2839912108117353E-003
   6.2420782994360244E-003
   4.9151446752210455E-003
  -4.4533331451126736E-002
  -4.4235712975273345E-002
  -3.6650631131765254E-002
  -2.9901603519535646E-002
  -2.3700890543314770E-002
  -1.8458529454482349E-002
  -1.4269135985927861E-002
  -1.0183955927866166E-002
  -3.0327474250021226E-003
   4.2481491227924561E-004
   1.0076494379904421E-003
   1.5288612177480937E-003
   2.0986139186427001E-003
   2.8883968010681672E-003
   3.8449285718715263E-003
   4.7641792882583403E-003
   5.7321911271354794E-003
   6.6912755469089565E-003
   8.4815181262531646E-003
   7.6789262973187564E-003
   5.6335006143298366E-003
  -2.7104162418359674E-002
  -2.6519380528357891E-002
  -1.9442236455838983E-002
  -1.3638701650143841E-002
  -6.6668386911415160E-003
   3.9738038018311906E-004
   1.1033643757613612E-003
   1.6992164284361296E-003
   2.2427621801840696E-003
   2.9037060969827975E-003
   3.7606761435521802E-003
   4.5439382128226761E-003
   5.2801184986138788E-003
   5.9606190043883477E-003
   6.6375767558623120E-003
   7.3688082763743914E-003
   8.2331481910847652E-003
   9.0920284056794452E-003
   1.0931242880308409E-002
   9.2868494336330772E-003
   6.3424318020600442E-003
  -8.3039223997519243E-003
  -2.2148314811053947E-003
   1.1808113547349564E-003
   2.4047529955662926E-003
   3.2977890632164869E-003
   4.1922605510723125E-003
   5.2921051517399020E-003
   6.2380411287395665E-003
   7.0559879283473102E-003
   7.7406516442788693E-003
   8.3334600889824230E-003
   8.8994702790010319E-003
   9.4679965007148717E-003
   1.0058155539909458E-002
   1.0690090230502679E-002
   1.1384204828517569E-002
   1.2206024000037726E-002
   1.3022519882875496E-002
   1.4596439066374072E-002
   1.1507044296693728E-002
   7.2991827444504175E-003
   6.1640109225414210E-003
   5.6317511765068811E-003
   7.3692489344090581E-003
   8.7383003780880687E-003
   9.2919188124445679E-003
   9.6062254557745461E-003
   9.7748058144369945E-003
   9.9212291356609549E-003
   1.0084924830609018E-002
   1.0272988603668898E-002
   1.0488310624402220E-002
   1.0732690212478586E-002
   1.1009980453849837E-002
   1.1328269927415794E-002
   1.1699290437126943E-002
   1.2136823191289340E-002
   1.2669352179338017E-002
   1.3276519722628466E-002
   1.4162102449241589E-002
   1.3516291778583810E-002
   9.5275820384069110E-003
   9.2707349822726617E-003
   1.0177267740038101E-002
   1.2526784329092384E-002
   1.3340411521544953E-002
   1.2663851258564772E-002
   1.1980891311711539E-002
   1.1360220787525152E-002
   1.0859120770466229E-002
   1.0472709575077883E-002
   1.0189994356645891E-002
   1.0000978780266035E-002
   9.8968060975630368E-003
   9.8685363134219297E-003
   9.9089531207922424E-003
   1.0015032648376639E-002
   1.0187799332461171E-002
   1.0433252361796829E-002
   1.0765679869499277E-002
   1.1252442209435514E-002
   1.1880064543942992E-002
   1.2264085307259906E-002
 -0.13081127630688524     
 -0.13000953044312002     
 -0.12974633737840466     
 -0.12959372746358375     
 -0.12940454686022426     
 -0.12925160765661112     
 -0.12909929424790914     
 -0.12890845421337774     
 -0.12874380100539867     
 -0.12854186569756570     
 -0.12832190708159488     
 -0.12805879847300833     
 -0.12774189609442146     
 -0.12735395108705383     
 -0.12685670842137312     
 -0.12620875489167502     
 -0.12535140570947351     
 -0.12417280921890453     
 -0.12283274423443000     
 -0.11937752272145605     
 -0.11888652533043889     
 -0.12936632694107947     
 -0.12899196678765393     
 -0.12785416123976620     
 -0.12791807621140749     
 -0.12773403084955401     
 -0.12756672676582267     
 -0.12739061341257035     
 -0.12720277602803137     
 -0.12699748889031232     
 -0.12675229279047157     
 -0.12647793391266865     
 -0.12615775838964083     
 -0.12576134620653620     
 -0.12526830986784068     
 -0.12464056045736049     
 -0.12382870352805289     
 -0.12275861835480412     
 -0.12133815611208086     
 -0.11959980644313907     
 -0.11602357059850692     
 -0.11627091046956634     
 -0.12828123007183567     
 -0.12752545647913840     
 -0.12597511931844874     
 -0.12586631221281147     
 -0.12541364017168569     
 -0.12500026566486661     
 -0.12458211224462180     
 -0.12413974815398625     
 -0.12367266177886987     
 -0.12316228371259577     
 -0.12259709501641171     
 -0.12194894741393500     
 -0.12119558911795160     
 -0.12028863521200608     
 -0.11919205666809568     
 -0.11785066545525810     
 -0.11618946609785903     
 -0.11410967740812165     
 -0.11159483335876660     
 -0.10730619668479888     
 -0.10691781202872935     
 -0.12721281097692780     
 -0.12682007466526968     
 -0.12496276241633968     
 -0.12458626495696226     
 -0.12387509054192018     
 -0.12319632447805495     
 -0.12249331124878804     
 -0.12176090939532434     
 -0.12098413712064786     
 -0.12014853853513570     
 -0.11922649690389775     
 -0.11819514558369332     
 -0.11702174631069016     
 -0.11566211217392508     
 -0.11405650162991504     
 -0.11212928007021866     
 -0.10979743573681892     
 -0.10695530267168901     
 -0.10353293503750630     
  -9.8347280662571160E-002
  -9.8004826011851190E-002
 -0.12580671179149222     
 -0.12558532311153867     
 -0.12333802938583380     
 -0.12261149900773846     
 -0.12159808622592515     
 -0.12059375130681729     
 -0.11956478338718310     
 -0.11849713010473627     
 -0.11737391423039197     
 -0.11617987869812858     
 -0.11488842921173184     
 -0.11345767544054734     
 -0.11183884126203433     
 -0.10997648277493009     
 -0.10779947210849558     
 -0.10521862285145173     
 -0.10211853225898344     
  -9.8334485070393676E-002
  -9.3809056554116768E-002
  -8.7807525009468770E-002
  -8.7424416440245720E-002
 -0.12402886061185289     
 -0.12397548116749281     
 -0.12131545148319245     
 -0.12018502903493304     
 -0.11880835177186323     
 -0.11743605305371599     
 -0.11604074199347890     
 -0.11460759438266846     
 -0.11311227961005642     
 -0.11152063115645749     
 -0.10979572346949042     
 -0.10788875459239380     
 -0.10574028443269744     
 -0.10327140781490640     
 -0.10037766067096064     
  -9.6926257734627777E-002
  -9.2901594018669945E-002
  -8.8303431864682896E-002
  -8.3061813363375328E-002
  -7.6205993226523910E-002
  -7.5742848123577927E-002
 -0.12178820414953141     
 -0.12188833028499610     
 -0.11878886036233098     
 -0.11720987842623866     
 -0.11544062980496317     
 -0.11367735265454473     
 -0.11188190175687159     
 -0.11002942145388407     
 -0.10808917457333811     
 -0.10601966320613379     
 -0.10376902848835429     
 -0.10126549200563693     
  -9.8415218897050349E-002
  -9.5149582144380393E-002
  -9.1495278496389998E-002
  -8.7396746562084765E-002
  -8.2776611305801454E-002
  -7.7341533796400852E-002
  -7.0881068439267864E-002
  -6.3285189410536735E-002
  -6.2812918882749438E-002
 -0.11899283638333794     
 -0.11923394765141157     
 -0.11570163975051956     
 -0.11364837701394453     
 -0.11143799135924044     
 -0.10921303042319264     
 -0.10693819084970890     
 -0.10457643518059996     
 -0.10208212401169277     
  -9.9385719825092894E-002
  -9.6422495039513986E-002
  -9.3210617913733279E-002
  -8.9744801024630505E-002
  -8.5963035148697714E-002
  -8.1784961143900103E-002
  -7.6909540727575942E-002
  -7.1271219383739204E-002
  -6.5067655929565774E-002
  -5.8285340419895144E-002
  -5.0563163299913956E-002
  -5.0114839015661820E-002
 -0.11563527104932868     
 -0.11593267601714136     
 -0.11196714204120244     
 -0.10935666535030479     
 -0.10661129891905347     
 -0.10381983617966897     
 -0.10092984954347085     
  -9.7878448321593231E-002
  -9.4659118473197107E-002
  -9.1330971363646221E-002
  -8.7858129318398315E-002
  -8.4193923318888114E-002
  -8.0228912693566440E-002
  -7.5657620067420647E-002
  -7.0628595232575919E-002
  -6.5192022745610645E-002
  -5.9316212420070805E-002
  -5.3104612612456699E-002
  -4.5580526087047886E-002
  -3.7145024799794105E-002
  -3.6640977174168574E-002
 -0.11158245681381232     
 -0.11181943767443370     
 -0.10736687798310417     
 -0.10407634581262000     
 -0.10063408869609186     
  -9.7063725115855023E-002
  -9.3423811892723807E-002
  -8.9776244058205057E-002
  -8.6089097825462729E-002
  -8.2317109970362873E-002
  -7.8278920624479137E-002
  -7.3812853413213364E-002
  -6.9152910603253473E-002
  -6.4244959912976352E-002
  -5.9075032269660668E-002
  -5.3706726272079577E-002
  -4.7360087859238363E-002
  -4.0379018963498256E-002
  -3.2825493115318898E-002
  -2.4485035633969560E-002
  -2.4043379522056839E-002
 -0.10653684592502086     
 -0.10663886596632316     
 -0.10154857265186915     
  -9.7333729663792876E-002
  -9.3059227531452335E-002
  -8.8868157764131678E-002
  -8.4740366397173444E-002
  -8.0606217008794057E-002
  -7.6198500827514712E-002
  -7.1667287368656143E-002
  -6.7108490546537364E-002
  -6.2461865401881443E-002
  -5.7762381518996854E-002
  -5.2971290149735013E-002
  -4.7417357443164526E-002
  -4.1482937819341648E-002
  -3.5099943589186278E-002
  -2.8368064137226770E-002
  -2.0563799171924267E-002
  -1.2165769471480190E-002
  -1.1799002418076368E-002
  -9.9954512948978613E-002
  -9.9910640490295938E-002
  -9.3987157076935862E-002
  -8.9014323552020894E-002
  -8.4185570363859888E-002
  -7.9416113175746303E-002
  -7.4435208004099529E-002
  -6.9571145413518914E-002
  -6.4823197670258736E-002
  -6.0180791090940391E-002
  -5.5688901218851061E-002
  -5.1017918322233013E-002
  -4.5973702396739487E-002
  -4.0762876191846466E-002
  -3.5325258965440982E-002
  -2.9839505966333099E-002
  -2.3526218564662384E-002
  -1.6505852185977318E-002
  -8.5405765108333212E-003
   6.1301464072610764E-004
   8.1098753047368537E-004
  -9.1500879065268284E-002
  -9.1302446951438201E-002
  -8.4906501009188950E-002
  -7.9242539908726747E-002
  -7.3440173760073807E-002
  -6.7920384246810864E-002
  -6.2676270575508702E-002
  -5.7770354549908864E-002
  -5.3171543058175362E-002
  -4.8273635190800940E-002
  -4.3436675913722862E-002
  -3.8588724914467777E-002
  -3.3762367268501250E-002
  -2.9031990277413707E-002
  -2.3793014973077248E-002
  -1.8207402465931735E-002
  -1.2359260609140079E-002
  -5.2490237649257610E-003
   6.2671558518970086E-003
   7.2119344274200799E-003
   6.9434406266865893E-003
  -8.1450802403693956E-002
  -8.1141473413050974E-002
  -7.3784240574873455E-002
  -6.7224436616526273E-002
  -6.1130834307674076E-002
  -5.5634953036725415E-002
  -5.0344132186171800E-002
  -4.5117102368403328E-002
  -4.0129733648916956E-002
  -3.5397946567838512E-002
  -3.0974897199531379E-002
  -2.6463930577378537E-002
  -2.1778634762981898E-002
  -1.7158418311890546E-002
  -1.2461023467466522E-002
  -7.1461026953804664E-003
  -1.9944382397358239E-003
   6.3218357212079150E-003
   8.0573355214956510E-003
   9.1687185320679810E-003
   9.0377316521127581E-003
  -6.8789233753894244E-002
  -6.8414097719402114E-002
  -6.0787364754175253E-002