# vtk DataFile Version 2.0
3D Unstructured Grid of Linear Triangles
ASCII
DATASET UNSTRUCTURED_GRID
FIELD FieldData  1
TIME 1 1 double
        3600.00000
POINTS     7056 float
      0.00000000E+00  1.00000000E+01  1.00000000E+00
      5.00000000E-01  1.00000000E+01  9.93333333E-01
      1.00000000E+00  1.00000000E+01  9.83333333E-01
      1.50000000E+00  1.00000000E+01  9.73333333E-01
      2.00000000E+00  1.00000000E+01  9.63333333E-01
      2.50000000E+00  1.00000000E+01  9.53333333E-01
      3.00000000E+00  1.00000000E+01  9.43333333E-01
      3.50000000E+00  1.00000000E+01  9.33333333E-01
      4.00000000E+00  1.00000000E+01  9.23333333E-01
      4.50000000E+00  1.00000000E+01  9.13333333E-01
      5.00000000E+00  1.00000000E+01  9.03333333E-01
      5.50000000E+00  1.00000000E+01  8.93333333E-01
      6.00000000E+00  1.00000000E+01  8.83333333E-01
      6.50000000E+00  1.00000000E+01  8.73333333E-01
      7.00000000E+00  1.00000000E+01  8.63333333E-01
      7.50000000E+00  1.00000000E+01  8.53333333E-01
      8.00000000E+00  1.00000000E+01  8.43333333E-01
      8.50000000E+00  1.00000000E+01  8.33333333E-01
      9.00000000E+00  1.00000000E+01  8.23333333E-01
      9.50000000E+00  1.00000000E+01  8.13333333E-01
      1.00000000E+01  1.00000000E+01  8.10000000E-01
      0.00000000E+00  9.50000000E+00  9.83333333E-01
      5.00000000E-01  9.50000000E+00  9.82500000E-01
      1.00000000E+00  9.50000000E+00  9.72500000E-01
      1.50000000E+00  9.50000000E+00  9.62500000E-01
      2.00000000E+00  9.50000000E+00  9.52500000E-01
      2.50000000E+00  9.50000000E+00  9.42500000E-01
      3.00000000E+00  9.50000000E+00  9.32500000E-01
      3.50000000E+00  9.50000000E+00  9.22500000E-01
      4.00000000E+00  9.50000000E+00  9.12500000E-01
      4.50000000E+00  9.50000000E+00  9.02500000E-01
      5.00000000E+00  9.50000000E+00  8.92500000E-01
      5.50000000E+00  9.50000000E+00  8.82500000E-01
      6.00000000E+00  9.50000000E+00  8.72500000E-01
      6.50000000E+00  9.50000000E+00  8.62500000E-01
      7.00000000E+00  9.50000000E+00  8.52500000E-01
      7.50000000E+00  9.50000000E+00  8.42500000E-01
      8.00000000E+00  9.50000000E+00  8.32500000E-01
      8.50000000E+00  9.50000000E+00  8.22500000E-01
      9.00000000E+00  9.50000000E+00  8.12500000E-01
      9.50000000E+00  9.50000000E+00  8.02500000E-01
      1.00000000E+01  9.50000000E+00  8.01666667E-01
      0.00000000E+00  9.00000000E+00  9.58333333E-01
      5.00000000E-01  9.00000000E+00  9.57500000E-01
      1.00000000E+00  9.00000000E+00  9.47500000E-01
      1.50000000E+00  9.00000000E+00  9.37500000E-01
      2.00000000E+00  9.00000000E+00  9.27500000E-01
      2.50000000E+00  9.00000000E+00  9.17500000E-01
      3.00000000E+00  9.00000000E+00  9.07500000E-01
      3.50000000E+00  9.00000000E+00  8.97500000E-01
      4.00000000E+00  9.00000000E+00  8.87500000E-01
      4.50000000E+00  9.00000000E+00  8.77500000E-01
      5.00000000E+00  9.00000000E+00  8.67500000E-01
      5.50000000E+00  9.00000000E+00  8.57500000E-01
      6.00000000E+00  9.00000000E+00  8.47500000E-01
      6.50000000E+00  9.00000000E+00  8.37500000E-01
      7.00000000E+00  9.00000000E+00  8.27500000E-01
      7.50000000E+00  9.00000000E+00  8.17500000E-01
      8.00000000E+00  9.00000000E+00  8.07500000E-01
      8.50000000E+00  9.00000000E+00  7.97500000E-01
      9.00000000E+00  9.00000000E+00  7.87500000E-01
      9.50000000E+00  9.00000000E+00  7.77500000E-01
      1.00000000E+01  9.00000000E+00  7.76666667E-01
      0.00000000E+00  8.50000000E+00  9.33333333E-01
      5.00000000E-01  8.50000000E+00  9.32500000E-01
      1.00000000E+00  8.50000000E+00  9.22500000E-01
      1.50000000E+00  8.50000000E+00  9.12500000E-01
      2.00000000E+00  8.50000000E+00  9.02500000E-01
      2.50000000E+00  8.50000000E+00  8.92500000E-01
      3.00000000E+00  8.50000000E+00  8.82500000E-01
      3.50000000E+00  8.50000000E+00  8.72500000E-01
      4.00000000E+00  8.50000000E+00  8.62500000E-01
      4.50000000E+00  8.50000000E+00  8.52500000E-01
      5.00000000E+00  8.50000000E+00  8.42500000E-01
      5.50000000E+00  8.50000000E+00  8.32500000E-01
      6.00000000E+00  8.50000000E+00  8.22500000E-01
      6.50000000E+00  8.50000000E+00  8.12500000E-01
      7.00000000E+00  8.50000000E+00  8.02500000E-01
      7.50000000E+00  8.50000000E+00  7.92500000E-01
      8.00000000E+00  8.50000000E+00  7.82500000E-01
      8.50000000E+00  8.50000000E+00  7.72500000E-01
      9.00000000E+00  8.50000000E+00  7.62500000E-01
      9.50000000E+00  8.50000000E+00  7.52500000E-01
      1.00000000E+01  8.50000000E+00  7.51666667E-01
      0.00000000E+00  8.00000000E+00  9.08333333E-01
      5.00000000E-01  8.00000000E+00  9.07500000E-01
      1.00000000E+00  8.00000000E+00  8.97500000E-01
      1.50000000E+00  8.00000000E+00  8.87500000E-01
      2.00000000E+00  8.00000000E+00  8.77500000E-01
      2.50000000E+00  8.00000000E+00  8.67500000E-01
      3.00000000E+00  8.00000000E+00  8.57500000E-01
      3.50000000E+00  8.00000000E+00  8.47500000E-01
      4.00000000E+00  8.00000000E+00  8.37500000E-01
      4.50000000E+00  8.00000000E+00  8.27500000E-01
      5.00000000E+00  8.00000000E+00  8.17500000E-01
      5.50000000E+00  8.00000000E+00  8.07500000E-01
      6.00000000E+00  8.00000000E+00  7.97500000E-01
      6.50000000E+00  8.00000000E+00  7.87500000E-01
      7.00000000E+00  8.00000000E+00  7.77500000E-01
      7.50000000E+00  8.00000000E+00  7.67500000E-01
      8.00000000E+00  8.00000000E+00  7.57500000E-01
      8.50000000E+00  8.00000000E+00  7.47500000E-01
      9.00000000E+00  8.00000000E+00  7.37500000E-01
      9.50000000E+00  8.00000000E+00  7.27500000E-01
      1.00000000E+01  8.00000000E+00  7.26666667E-01
      0.00000000E+00  7.50000000E+00  8.83333333E-01
      5.00000000E-01  7.50000000E+00  8.82500000E-01
      1.00000000E+00  7.50000000E+00  8.72500000E-01
      1.50000000E+00  7.50000000E+00  8.62500000E-01
      2.00000000E+00  7.50000000E+00  8.52500000E-01
      2.50000000E+00  7.50000000E+00  8.42500000E-01
      3.00000000E+00  7.50000000E+00  8.32500000E-01
      3.50000000E+00  7.50000000E+00  8.22500000E-01
      4.00000000E+00  7.50000000E+00  8.12500000E-01
      4.50000000E+00  7.50000000E+00  8.02500000E-01
      5.00000000E+00  7.50000000E+00  7.92500000E-01
      5.50000000E+00  7.50000000E+00  7.82500000E-01
      6.00000000E+00  7.50000000E+00  7.72500000E-01
      6.50000000E+00  7.50000000E+00  7.62500000E-01
      7.00000000E+00  7.50000000E+00  7.52500000E-01
      7.50000000E+00  7.50000000E+00  7.42500000E-01
      8.00000000E+00  7.50000000E+00  7.32500000E-01
      8.50000000E+00  7.50000000E+00  7.22500000E-01
      9.00000000E+00  7.50000000E+00  7.12500000E-01
      9.50000000E+00  7.50000000E+00  7.02500000E-01
      1.00000000E+01  7.50000000E+00  7.01666667E-01
      0.00000000E+00  7.00000000E+00  8.58333333E-01
      5.00000000E-01  7.00000000E+00  8.57500000E-01
      1.00000000E+00  7.00000000E+00  8.47500000E-01
      1.50000000E+00  7.00000000E+00  8.37500000E-01
      2.00000000E+00  7.00000000E+00  8.27500000E-01
      2.50000000E+00  7.00000000E+00  8.17500000E-01
      3.00000000E+00  7.00000000E+00  8.07500000E-01
      3.50000000E+00  7.00000000E+00  7.97500000E-01
      4.00000000E+00  7.00000000E+00  7.87500000E-01
      4.50000000E+00  7.00000000E+00  7.77500000E-01
      5.00000000E+00  7.00000000E+00  7.67500000E-01
      5.50000000E+00  7.00000000E+00  7.57500000E-01
      6.00000000E+00  7.00000000E+00  7.47500000E-01
      6.50000000E+00  7.00000000E+00  7.37500000E-01
      7.00000000E+00  7.00000000E+00  7.27500000E-01
      7.50000000E+00  7.00000000E+00  7.17500000E-01
      8.00000000E+00  7.00000000E+00  7.07500000E-01
      8.50000000E+00  7.00000000E+00  6.97500000E-01
      9.00000000E+00  7.00000000E+00  6.87500000E-01
      9.50000000E+00  7.00000000E+00  6.77500000E-01
      1.00000000E+01  7.00000000E+00  6.76666667E-01
      0.00000000E+00  6.50000000E+00  8.33333333E-01
      5.00000000E-01  6.50000000E+00  8.32500000E-01
      1.00000000E+00  6.50000000E+00  8.22500000E-01
      1.50000000E+00  6.50000000E+00  8.12500000E-01
      2.00000000E+00  6.50000000E+00  8.02500000E-01
      2.50000000E+00  6.50000000E+00  7.92500000E-01
      3.00000000E+00  6.50000000E+00  7.82500000E-01
      3.50000000E+00  6.50000000E+00  7.72500000E-01
      4.00000000E+00  6.50000000E+00  7.62500000E-01
      4.50000000E+00  6.50000000E+00  7.52500000E-01
      5.00000000E+00  6.50000000E+00  7.42500000E-01
      5.50000000E+00  6.50000000E+00  7.32500000E-01
      6.00000000E+00  6.50000000E+00  7.22500000E-01
      6.50000000E+00  6.50000000E+00  7.12500000E-01
      7.00000000E+00  6.50000000E+00  7.02500000E-01
      7.50000000E+00  6.50000000E+00  6.92500000E-01
      8.00000000E+00  6.50000000E+00  6.82500000E-01
      8.50000000E+00  6.50000000E+00  6.72500000E-01
      9.00000000E+00  6.50000000E+00  6.62500000E-01
      9.50000000E+00  6.50000000E+00  6.52500000E-01
      1.00000000E+01  6.50000000E+00  6.51666667E-01
      0.00000000E+00  6.00000000E+00  8.08333333E-01
      5.00000000E-01  6.00000000E+00  8.07500000E-01
      1.00000000E+00  6.00000000E+00  7.97500000E-01
      1.50000000E+00  6.00000000E+00  7.87500000E-01
      2.00000000E+00  6.00000000E+00  7.77500000E-01
      2.50000000E+00  6.00000000E+00  7.67500000E-01
      3.00000000E+00  6.00000000E+00  7.57500000E-01
      3.50000000E+00  6.00000000E+00  7.47500000E-01
      4.00000000E+00  6.00000000E+00  7.37500000E-01
      4.50000000E+00  6.00000000E+00  7.27500000E-01
      5.00000000E+00  6.00000000E+00  7.17500000E-01
      5.50000000E+00  6.00000000E+00  7.07500000E-01
      6.00000000E+00  6.00000000E+00  6.97500000E-01
      6.50000000E+00  6.00000000E+00  6.87500000E-01
      7.00000000E+00  6.00000000E+00  6.77500000E-01
      7.50000000E+00  6.00000000E+00  6.67500000E-01
      8.00000000E+00  6.00000000E+00  6.57500000E-01
[...]
POINT_DATA     7056
SCALARS pressure float
LOOKUP_TABLE default
 -0.16586309006579439     
 -0.16507249642732585     
 -0.16487175137315188     
 -0.16478245948823028     
 -0.16465609482847812     
 -0.16455967482405812     
 -0.16446223343905042     
 -0.16433395914589591     
 -0.16422611772827472     
 -0.16409029177685358     
 -0.16394138223640406     
 -0.16375978609140959     
 -0.16353614283287693     
 -0.16325608654475832     
 -0.16288605721845345     
 -0.16239106361541628     
 -0.16172452861323514     
 -0.16078334472765937     
 -0.15986379318265417     
 -0.15673740020790852     
 -0.15595550215140619     
 -0.16442281642148912     
 -0.16395989206767950     
 -0.16282076576752433     
 -0.16302384030633518     
 -0.16293477030888984     
 -0.16286342324756994     
 -0.16278077515269848     
 -0.16268765718425979     
 -0.16257784172583548     
 -0.16243491079308603     
 -0.16226404615273216     
 -0.16204978883001608     
 -0.16176611134234786     
 -0.16139210906246773     
 -0.16089387687660220     
 -0.16022945310231040     
 -0.15934162664295071     
 -0.15814886696116201     
 -0.15677535805264642     
 -0.15351411976184007     
 -0.15330136429211313     
 -0.16364703674530279     
 -0.16278511938651588     
 -0.16130282584667358     
 -0.16143800819081505     
 -0.16113074388257173     
 -0.16087402636559578     
 -0.16060933036532712     
 -0.16032052594043189     
 -0.16000471856244405     
 -0.15964365460709218     
 -0.15922397647042943     
 -0.15872094848193741     
 -0.15811117589481613     
 -0.15735465135373203     
 -0.15641365537815860     
 -0.15523591438176909     
 -0.15375615303264234     
 -0.15189280970188981     
 -0.14973553986134802     
 -0.14568103173812313     
 -0.14479049259572427     
 -0.16296661552328384     
 -0.16253132467002046     
 -0.16083484843394691     
 -0.16080319356191361     
 -0.16032604996058031     
 -0.15988618269109386     
 -0.15940944823000777     
 -0.15888824000164714     
 -0.15830770265934371     
 -0.15765158746952679     
 -0.15689450879074357     
 -0.15601093364492452     
 -0.15496617263937409     
 -0.15371897189921918     
 -0.15221910320983431     
 -0.15040526856910924     
 -0.14821232006369142     
 -0.14556401689832232     
 -0.14250797536196821     
 -0.13770690900624946     
 -0.13715146259801936     
 -0.16205753440134160     
 -0.16180474714666326     
 -0.15978689081019670     
 -0.15950051734302825     
 -0.15879661456567279     
 -0.15809036974044832     
 -0.15732826703878153     
 -0.15649554667925999     
 -0.15557386218728181     
 -0.15454306972193352     
 -0.15337485219524330     
 -0.15203559724694618     
 -0.15048353553880930     
 -0.14866996700524210     
 -0.14653682337975102     
 -0.14402132377421287     
 -0.14107202097160201     
 -0.13767412682236654     
 -0.13386808820153770     
 -0.12851056597481911     
 -0.12806436362748394     
 -0.16089760020855901     
 -0.16076649454296676     
 -0.15841327391349783     
 -0.15778988570661576     
 -0.15676835153353724     
 -0.15571390097995280     
 -0.15457969429508389     
 -0.15334844582753077     
 -0.15199995695073826     
 -0.15050633118808684     
 -0.14883474457727258     
 -0.14694380900281395     
 -0.14478578916774307     
 -0.14231154777795879     
 -0.13949359007938752     
 -0.13631553907768745     
 -0.13272926660917350     
 -0.12868101845614818     
 -0.12415679977046340     
 -0.11821803571406773     
 -0.11776483069818408     
 -0.15934352302648649     
 -0.15924002026571649     
 -0.15651586455383340     
 -0.15546246300405447     
 -0.15403864612161691     
 -0.15255137944527886     
 -0.15095951792825127     
 -0.14924280410825502     
 -0.14737478360134759     
 -0.14532311812224524     
 -0.14305183719042597     
 -0.14053282420808308     
 -0.13775821516827133     
 -0.13469734383169710     
 -0.13130142537773873     
 -0.12752186045960082     
 -0.12330355511113616     
 -0.11858377574461269     
 -0.11328302227918738     
 -0.10643165323724137     
 -0.10591180009119711     
 -0.15719777580649699     
 -0.15705774863499536     
 -0.15392210764624120     
 -0.15233811511260859     
 -0.15041624414323945     
 -0.14840049440290987     
 -0.14625263301305780     
 -0.14394917773485363     
 -0.14147076771112888     
 -0.13881458821978604     
 -0.13597612603989176     
 -0.13291888361947812     
 -0.12960208888687802     
 -0.12598136555234990     
 -0.12200427559908607     
 -0.11761412270203478     
 -0.11269896350640796     
 -0.10700741345545489     
 -0.10068289799320405     
  -9.3281301071244702E-002
  -9.2733328361818843E-002
 -0.15423474742167492     
 -0.15402703480265179     
 -0.15040801153532302     
 -0.14818052964100359     
 -0.14564963803110120     
 -0.14299608312954601     
 -0.14020946308755564     
 -0.13730969523429473     
 -0.13428497827137900     
 -0.13110551975676332     
 -0.12773944159294645     
 -0.12414779439621558     
 -0.12028486986408590     
 -0.11609706565535687     
 -0.11144557478040287     
 -0.10615720419759668     
 -0.10037890914852639     
  -9.4105227538334044E-002
  -8.7317266506379720E-002
  -7.9089819083562996E-002
  -7.8483379939650086E-002
 -0.15015412921515134     
 -0.14989187738446688     
 -0.14567772076880439     
 -0.14268645551020676     
 -0.13947127446112523     
 -0.13620070507555307     
 -0.13285506046970075     
 -0.12941466654760148     
 -0.12585534381351107     
 -0.12214464008768837     
 -0.11824798064765858     
 -0.11409786298599582     
 -0.10952080761344940     
 -0.10451199938844753     
  -9.9155786837360108E-002
  -9.3439942959628514E-002
  -8.7319783713239271E-002
  -8.0292666204835272E-002
  -7.2679897937937193E-002
  -6.4270137292917501E-002
  -6.3728320599107741E-002
 -0.14457121067000905     
 -0.14430403512443385     
 -0.13943255210124375     
 -0.13572405149764175     
 -0.13190272075897944     
 -0.12804519662318714     
 -0.12413125423079646     
 -0.12013811590623476     
 -0.11603506162523737     
 -0.11171193569113773     
 -0.10703956325548167     
 -0.10215669900338410     
  -9.7054878527815566E-002
  -9.1747280293569974E-002
  -8.6073671544434321E-002
  -7.9740805883010663E-002
  -7.2993696669205771E-002
  -6.5780940886525474E-002
  -5.8230928758365129E-002
  -4.9551523745812759E-002
  -4.9022228622682434E-002
 -0.13734035179002005     
 -0.13708145382621495     
 -0.13166785156808858     
 -0.12726171584812754     
 -0.12280729553716026     
 -0.11834736069068741     
 -0.11382847586690491     
 -0.10908503299686316     
 -0.10419538100300779     
  -9.9238090984987634E-002
  -9.4216556417993855E-002
  -8.9126106351527443E-002
  -8.3605230448629927E-002
  -7.7777972980508467E-002
  -7.1691757696144831E-002
  -6.5325267938280529E-002
  -5.8787501704683200E-002
  -5.1421505614465797E-002
  -4.3485671855156990E-002
  -3.5049789687843419E-002
  -3.4685313261646200E-002
 -0.12849409257191935     
 -0.12816158964185231     
 -0.12219586135639830     
 -0.11707113542123337     
 -0.11188392656040126     
 -0.10653050226098072     
 -0.10122366230121062     
  -9.5987565660807961E-002
  -9.0846061737086564E-002
  -8.5591675368575287E-002
  -8.0104284009230309E-002
  -7.4561456820393793E-002
  -6.8896192334740300E-002
  -6.3175760361364908E-002
  -5.7330368189696501E-002
  -5.0950797966380842E-002
  -4.4182286605560721E-002
  -3.7105567692918978E-002
  -2.9442455457111393E-002
  -2.1154582436870614E-002
  -2.0898178225309431E-002
 -0.11772604544115729     
 -0.11731388630125984     
 -0.11061296166805050     
 -0.10443943657422483     
  -9.8447203943703335E-002
  -9.2700662362954295E-002
  -8.7135820796384017E-002
  -8.1404452386905760E-002
  -7.5792472274642655E-002
  -7.0259494638189021E-002
  -6.4850000279530931E-002
  -5.9630342987274203E-002
  -5.4053829810258039E-002
  -4.8346141546897446E-002
  -4.2504475132299352E-002
  -3.6539477848303380E-002
  -3.0118250221208127E-002
  -2.3322172597935634E-002
  -1.5833802494670160E-002
  -8.7070383346528769E-003
  -8.8247978150853452E-003
 -0.10421148298132894     
 -0.10372890496194657     
  -9.6361584823869723E-002
  -8.9767594742524284E-002
  -8.3246416974020992E-002
  -7.6946404330412971E-002
  -7.0941360252653560E-002
  -6.5253469604108855E-002
  -5.9950790295159755E-002
  -5.4530945848008397E-002
  -4.9205976026051125E-002
  -4.3961807855212552E-002
  -3.8753597739616806E-002
  -3.3500706060361277E-002
  -2.8109077787188685E-002
  -2.2493679651031419E-002
  -1.6269977526316599E-002
  -1.0197403393904828E-002
   5.1102379861109153E-004
   4.6017506408327184E-004
   1.4415099374732147E-004
  -8.8525022692727745E-002
  -8.8051928818430991E-002
  -8.0009693566278753E-002
  -7.2672403260313961E-002
  -6.5930786252799994E-002
  -5.9908862545804416E-002
  -5.4031101302548692E-002
  -4.8434427459220775E-002
  -4.3130675549904129E-002
  -3.8067200861290916E-002
  -3.3286470252063209E-002
  -2.8547909858962429E-002
  -2.3762226529602786E-002
  -1.8571037800361196E-002
  -1.4038404560417113E-002
  -9.1860023244059816E-003
   1.3639269816141799E-004
   9.3219011796098089E-004
   2.5618756041292110E-003
   2.5175231432230318E-003
   1.2137104538637096E-003
  -6.9968632876246578E-002
  -6.9567677077410156E-002
  -6.1571886481393973E-002
  -5.4216888421307674E-002
  -4.7335539956173046E-002
  -4.1416591257084537E-002
  -3.6184594530402028E-002
  -3.1179012454684227E-002
  -2.6350010157553071E-002
  -2.1423200639562448E-002
  -1.7249860424375207E-002
  -1.3460536053368487E-002
  -9.2759903624592653E-003
   1.6125829471465796E-005
   6.4080927717395577E-004
   1.4093793643208314E-003
   2.2548955281122321E-003
   3.3481982373174510E-003
   5.5097183033811529E-003
   5.1015995120242330E-003
   3.1738833810803545E-003
  -4.9741484257459855E-002
  -4.9449848209703468E-002
  -4.1389872621392480E-002
  -3.4258021696354543E-002
  -2.7073967532372522E-002
  -2.2028713208179094E-002
  -1.7880734492749732E-002
  -1.3993431944225225E-002
  -9.9051045039895216E-003
  -1.7006669994214679E-003
   4.7774123361098294E-004
   1.1030638262170198E-003
   1.7076446347417220E-003
   2.3200907063114706E-003
   3.1383408660196478E-003
   4.3114239854274332E-003
   5.5019637586722365E-003
   6.5586915737395231E-003
   8.4542245545269953E-003
   7.2196987408109699E-003
   4.6253410548252553E-003
  -2.7231866091576153E-002
  -2.7093837576253783E-002
  -1.9449858428275062E-002
  -1.3085682213549304E-002
   1.3384507645836829E-004
   9.3760861233945089E-004
   1.7331612279322310E-003
   2.4198139078283115E-003
   3.0680745703399776E-003
   3.6789873768525243E-003
   4.4054218999411421E-003
   5.3856569184616296E-003
   6.3206920131186357E-003
   7.2398809556098766E-003
   8.0962211638869793E-003
   8.9243949842079048E-003
   9.8516961459576852E-003
   1.0754872009829176E-002
   1.2386540124010468E-002
   9.7251922092181173E-003
   5.9482411527639863E-003
   3.4566310839005058E-004
   1.1431014548211672E-003
   2.5564391273946866E-003
   3.4455540778190017E-003
   4.0862410449379509E-003
   4.8480129800610406E-003
   5.6880955522569960E-003
   6.3195266652590022E-003
   6.8978458897448747E-003
   7.4283860765581855E-003
   7.8641070110238714E-003
   8.2289660336694100E-003
   8.5961849974692962E-003
   8.9940125046392826E-003
   9.4354856270850648E-003
   9.9333163483271252E-003
   1.0510683492115987E-002
   1.1142835814848189E-002
   1.2035903884549174E-002
   1.1442541157061517E-002
   7.9092553824164653E-003
   6.6195976807682116E-004
   1.6045583713554729E-003
   4.3720158289194695E-003
   6.5235774579928685E-003
   7.5989462314257853E-003
   8.1675112464713630E-003
   8.2275405665983067E-003
   8.1493463405928300E-003
   8.0361697228871730E-003
   7.9317742425731013E-003
   7.8569443388030562E-003
   7.8225535139146863E-003
   7.8336556542547339E-003
   7.8912654285581679E-003
   7.9971431862365678E-003
   8.1566574706441412E-003
   8.3801401962662909E-003
   8.6833023994755173E-003
   9.1329999757393983E-003
   9.6400468410639609E-003
   9.8353843304926983E-003
 -0.16002852516060051     
 -0.15928747720452588     
 -0.15908677378082628     
 -0.15899747224866437     
 -0.15887107496392250     
 -0.15877462198157868     
 -0.15867714388022441     
 -0.15854885872192750     
 -0.15844091243093722     
 -0.15830496094201091     
 -0.15815585615191802     
 -0.15797400350035334     
 -0.15775002594357976     
 -0.15746954422370851     
 -0.15709898108119030     
 -0.15660328919245692     
 -0.15593578576125441     
 -0.15499347607593431     
 -0.15407119138655972     
 -0.15094305354120793     
 -0.15026076976079200     
 -0.15864479816031868     
 -0.15827738163839095     
 -0.15713819346155986     
 -0.15734190653155086     
 -0.15725330126661755     
 -0.15718222391220255     
 -0.15709973604226979     
 -0.15700666007070971     
 -0.15689678786771688     
 -0.15675375140186099     
 -0.15658268814453649     
 -0.15636814481427089     
 -0.15608408124203671     
 -0.15570951075816641     
 -0.15521042262948814     
 -0.15454469749291005     
 -0.15365498601826788     
 -0.15245986538556239     
 -0.15108265290210388     
 -0.14781932359337646     
 -0.14769919188479155     
 -0.15787187927972676     
 -0.15710892076332755     
 -0.15562629088694621     
 -0.15576191412988022     
 -0.15545476654465168     
 -0.15519794890222371     
 -0.15493311960220818     
 -0.15464414936950366     
 -0.15432812298879586     
 -0.15396677072145920     
 -0.15354666589024399     
 -0.15304299889289399     
 -0.15243223286741478     
 -0.15167426577000487     
 -0.15073131175896901     
 -0.14955113531980180     
 -0.14806841602112497     
 -0.14620168610798895     
 -0.14403982454319222     
 -0.13998202754048344     
 -0.13917948902072624     
 -0.15719170870162241     
 -0.15685631303110273     
 -0.15515914458686073     
 -0.15512792255881722     
 -0.15465087498541677     
 -0.15421090634159509     
 -0.15373404725562276     
 -0.15321258571827309     
 -0.15263158679944877     
 -0.15197468751277562     
 -0.15121640722090884     
 -0.15033115152818763     
 -0.14928424934058701     
 -0.14803438090710150     
 -0.14653125803760647     
 -0.14471361866038501     
 -0.14251630761110151     
 -0.13986298612824644     
 -0.13679937235300196     
 -0.13198815134401387     
 -0.13151510882730805     
 -0.15628255482148770     
 -0.15613003767788594     
 -0.15411138898914370     
 -0.15382536396004587     
 -0.15312156889908943     
 -0.15241513753339761     
 -0.15165256898492413     
 -0.15081896319912591     
 -0.14989591790718743     
 -0.14886329668850407     
 -0.14769273368265004     
 -0.14635053193877415     
 -0.14479491438752651     
 -0.14297719708401208     
 -0.14083926734055210     
 -0.13831794612743359     
 -0.13536001782896451     
 -0.13195001088328853     
 -0.12813040263853259     
 -0.12276162160413807     
 -0.12239293195249497     
 -0.15512215186760714     
 -0.15509179629179271     
 -0.15273773313071018     
 -0.15211433656900439     
 -0.15109245809110963     
 -0.15003704534345241     
 -0.14890139422073936     
 -0.14766819969686290     
 -0.14631715623063252     
 -0.14482032989450727     
 -0.14314490989165130     
 -0.14124950394122690     
 -0.13908619830290642     
 -0.13660494459744521     
 -0.13377653549973884     
 -0.13058627436984180     
 -0.12698716239379851     
 -0.12292516027713117     
 -0.11838572841491268     
 -0.11243558954304014     
 -0.11205169109318086     
 -0.15356712348451401     
 -0.15356467642405189     
 -0.15083897934875307     
 -0.14978458660683766     
 -0.14835942122777834     
 -0.14687009825276232     
 -0.14527551610147690     
 -0.14355539706900544     
 -0.14168330149582276     
 -0.13962681395154097     
 -0.13734945599410175     
 -0.13482167642931331     
 -0.13203555579270168     
 -0.12896252751281595     
 -0.12555376395474813     
 -0.12176060595068683     
 -0.11752808123009598     
 -0.11279349941107916     
 -0.10748038627417487     
 -0.10062407667692999     
 -0.10016775991479497     
 -0.15141929302868667     
 -0.15137928439447335     
 -0.14824112991939220     
 -0.14665496804615782     
 -0.14473035704734721     
 -0.14271103214185410     
 -0.14055886849526805     
 -0.13825012396667474     
 -0.13576437653808313     
 -0.13309764480977235     
 -0.13024743640726946     
 -0.12717795188476519     
 -0.12384825150112556     
 -0.12021411040690939     
 -0.11622309403519356     
 -0.11181881501697859     
 -0.10689331114942385     
 -0.10119082068408949     
  -9.4846991365123062E-002
  -8.7429919663509076E-002
  -8.6930431387701484E-002
 -0.14845236281577104     
 -0.14834154129696611     
 -0.14471941863789656     
 -0.14248811439660927     
 -0.13995277107905377     
 -0.13729327507735345     
 -0.13449768555731706     
 -0.13158638256680671     
 -0.12854969473752714     
 -0.12535775143672157     
 -0.12197871938758351     
 -0.11837374881438485     
 -0.11449706301682962     
 -0.11029630723534192     
 -0.10563676345306215     
 -0.10033528026538595     
  -9.4539336806434351E-002
  -8.8245661461157088E-002
  -8.1442271731778246E-002
  -7.3204723897735052E-002
  -7.2637184425229762E-002
 -0.14436500828418664     
 -0.14419475975110535     
 -0.13997703167597009     
 -0.13697887860152796     
 -0.13375325098680982     
 -0.13047059867848310     
 -0.12711255467880225     
 -0.12365931895746081     
 -0.12008689826963918     
 -0.11636281633232315     
 -0.11245265844391764     
 -0.10829165612434091     
 -0.10370765218696494     
  -9.8682968982573976E-002
  -9.3309976598587932E-002
  -8.7575445482886899E-002
  -8.1442164050973875E-002
  -7.4400235274419288E-002
  -6.6769050597797211E-002
  -5.8345272394462785E-002
  -5.7826595051789748E-002
 -0.13877103598242790     
 -0.13858963534199628     
 -0.13370844893478367     
 -0.12998681913319179     
 -0.12615246836713667     
 -0.12228160666578251     
 -0.11835418379706329     
 -0.11434733158573751     
 -0.11023183917898020     
 -0.10590100281483945     
 -0.10121705985433375     
  -9.6318480012011543E-002
  -9.1200075980216871E-002
  -8.5874898009869180E-002
  -8.0193571379775550E-002
  -7.3844620613220724E-002
  -6.7081248469575666E-002
  -5.9851015990904720E-002
  -5.2287828297953247E-002
  -4.3599585038372690E-002
  -4.3085278882850506E-002
 -0.13151698826447483     
 -0.13133525060231044     
 -0.12590988444340567     
 -0.12148937108194090     
 -0.11702084802183051     
 -0.11254687961816311     
 -0.10801745235580180     
 -0.10326661985849250     
  -9.8361564191720777E-002
  -9.3388630836315434E-002
  -8.8350296093010178E-002
  -8.3244951405603215E-002
  -7.7715738557153399E-002
  -7.1873960115092880E-002
  -6.5773696121525088E-002
  -5.9391995578124468E-002
  -5.2842764579805919E-002
  -4.5464182674553148E-002
  -3.7517366855757531E-002
  -2.9075914670544978E-002
  -2.8718658702758536E-002
 -0.12264375828199921     
 -0.12237828911114798     
 -0.11639973358736501     
 -0.11126058640951790     
 -0.10606536279147875     
 -0.10069945248959747     
  -9.5376972889674075E-002
  -9.0124260753634763E-002
  -8.4966605387087182E-002
  -7.9705702843782464E-002
  -7.4204469810538548E-002
  -6.8648282293984925E-002
  -6.2969651042122890E-002
  -5.7235513427163973E-002
  -5.1381389806445875E-002
  -4.4991402191940234E-002
  -3.8213669823672046E-002
  -3.1128063914511037E-002
  -2.3459426994834588E-002
  -1.5168395498406335E-002
  -1.4914042812214052E-002
 -0.11184713274965087     
 -0.11149003460392758     
 -0.10478484574102333     
  -9.8595061950727078E-002
  -9.2585965049912677E-002
  -8.6822572020676544E-002
  -8.1248435408863756E-002
  -7.5504864443760464E-002
  -6.9879772491235281E-002
  -6.4334297697665410E-002
  -5.8912377491453706E-002
  -5.3682154825179684E-002
  -4.8098572257963615E-002
  -4.2382672609298004E-002
  -3.6533154323200992E-002
  -3.0560590683758639E-002
  -2.4134950869859121E-002
  -1.7331809811944335E-002
  -9.8427518517502661E-003
  -2.7163200906508752E-003
  -2.8336840948252847E-003
  -9.8308098799258045E-002
  -9.7869219666646093E-002
  -9.0486302351237100E-002