# vtk DataFile Version 2.0
3D Unstructured Grid of Linear Triangles
ASCII
DATASET UNSTRUCTURED_GRID
FIELD FieldData  1
TIME 1 1 double
        7200.00000
POINTS     7056 float
      0.00000000E+00  1.00000000E+01  1.00000000E+00
      5.00000000E-01  1.00000000E+01  9.93333333E-01
      1.00000000E+00  1.00000000E+01  9.83333333E-01
      1.50000000E+00  1.00000000E+01  9.73333333E-01
      2.00000000E+00  1.00000000E+01  9.63333333E-01
      2.50000000E+00  1.00000000E+01  9.53333333E-01
      3.00000000E+00  1.00000000E+01  9.43333333E-01
      3.50000000E+00  1.00000000E+01  9.33333333E-01
      4.00000000E+00  1.00000000E+01  9.23333333E-01
      4.50000000E+00  1.00000000E+01  9.13333333E-01
      5.00000000E+00  1.00000000E+01  9.03333333E-01
      5.50000000E+00  1.00000000E+01  8.93333333E-01
      6.00000000E+00  1.00000000E+01  8.83333333E-01
      6.50000000E+00  1.00000000E+01  8.73333333E-01
      7.00000000E+00  1.00000000E+01  8.63333333E-01
      7.50000000E+00  1.00000000E+01  8.53333333E-01
      8.00000000E+00  1.00000000E+01  8.43333333E-01
      8.50000000E+00  1.00000000E+01  8.33333333E-01
      9.00000000E+00  1.00000000E+01  8.23333333E-01
      9.50000000E+00  1.00000000E+01  8.13333333E-01
      1.00000000E+01  1.00000000E+01  8.10000000E-01
      0.00000000E+00  9.50000000E+00  9.83333333E-01
      5.00000000E-01  9.50000000E+00  9.82500000E-01
      1.00000000E+00  9.50000000E+00  9.72500000E-01
      1.50000000E+00  9.50000000E+00  9.62500000E-01
      2.00000000E+00  9.50000000E+00  9.52500000E-01
      2.50000000E+00  9.50000000E+00  9.42500000E-01
      3.00000000E+00  9.50000000E+00  9.32500000E-01
      3.50000000E+00  9.50000000E+00  9.22500000E-01
      4.00000000E+00  9.50000000E+00  9.12500000E-01
      4.50000000E+00  9.50000000E+00  9.02500000E-01
      5.00000000E+00  9.50000000E+00  8.92500000E-01
      5.50000000E+00  9.50000000E+00  8.82500000E-01
      6.00000000E+00  9.50000000E+00  8.72500000E-01
      6.50000000E+00  9.50000000E+00  8.62500000E-01
      7.00000000E+00  9.50000000E+00  8.52500000E-01
      7.50000000E+00  9.50000000E+00  8.42500000E-01
      8.00000000E+00  9.50000000E+00  8.32500000E-01
      8.50000000E+00  9.50000000E+00  8.22500000E-01
      9.00000000E+00  9.50000000E+00  8.12500000E-01
      9.50000000E+00  9.50000000E+00  8.02500000E-01
      1.00000000E+01  9.50000000E+00  8.01666667E-01
      0.00000000E+00  9.00000000E+00  9.58333333E-01
      5.00000000E-01  9.00000000E+00  9.57500000E-01
      1.00000000E+00  9.00000000E+00  9.47500000E-01
      1.50000000E+00  9.00000000E+00  9.37500000E-01
      2.00000000E+00  9.00000000E+00  9.27500000E-01
      2.50000000E+00  9.00000000E+00  9.17500000E-01
      3.00000000E+00  9.00000000E+00  9.07500000E-01
      3.50000000E+00  9.00000000E+00  8.97500000E-01
      4.00000000E+00  9.00000000E+00  8.87500000E-01
      4.50000000E+00  9.00000000E+00  8.77500000E-01
      5.00000000E+00  9.00000000E+00  8.67500000E-01
      5.50000000E+00  9.00000000E+00  8.57500000E-01
      6.00000000E+00  9.00000000E+00  8.47500000E-01
      6.50000000E+00  9.00000000E+00  8.37500000E-01
      7.00000000E+00  9.00000000E+00  8.27500000E-01
      7.50000000E+00  9.00000000E+00  8.17500000E-01
      8.00000000E+00  9.00000000E+00  8.07500000E-01
      8.50000000E+00  9.00000000E+00  7.97500000E-01
      9.00000000E+00  9.00000000E+00  7.87500000E-01
      9.50000000E+00  9.00000000E+00  7.77500000E-01
      1.00000000E+01  9.00000000E+00  7.76666667E-01
      0.00000000E+00  8.50000000E+00  9.33333333E-01
      5.00000000E-01  8.50000000E+00  9.32500000E-01
      1.00000000E+00  8.50000000E+00  9.22500000E-01
      1.50000000E+00  8.50000000E+00  9.12500000E-01
      2.00000000E+00  8.50000000E+00  9.02500000E-01
      2.50000000E+00  8.50000000E+00  8.92500000E-01
      3.00000000E+00  8.50000000E+00  8.82500000E-01
      3.50000000E+00  8.50000000E+00  8.72500000E-01
      4.00000000E+00  8.50000000E+00  8.62500000E-01
      4.50000000E+00  8.50000000E+00  8.52500000E-01
      5.00000000E+00  8.50000000E+00  8.42500000E-01
      5.50000000E+00  8.50000000E+00  8.32500000E-01
      6.00000000E+00  8.50000000E+00  8.22500000E-01
      6.50000000E+00  8.50000000E+00  8.12500000E-01
      7.00000000E+00  8.50000000E+00  8.02500000E-01
      7.50000000E+00  8.50000000E+00  7.92500000E-01
      8.00000000E+00  8.50000000E+00  7.82500000E-01
      8.50000000E+00  8.50000000E+00  7.72500000E-01
      9.00000000E+00  8.50000000E+00  7.62500000E-01
      9.50000000E+00  8.50000000E+00  7.52500000E-01
      1.00000000E+01  8.50000000E+00  7.51666667E-01
      0.00000000E+00  8.00000000E+00  9.08333333E-01
      5.00000000E-01  8.00000000E+00  9.07500000E-01
      1.00000000E+00  8.00000000E+00  8.97500000E-01
      1.50000000E+00  8.00000000E+00  8.87500000E-01
      2.00000000E+00  8.00000000E+00  8.77500000E-01
      2.50000000E+00  8.00000000E+00  8.67500000E-01
      3.00000000E+00  8.00000000E+00  8.57500000E-01
      3.50000000E+00  8.00000000E+00  8.47500000E-01
      4.00000000E+00  8.00000000E+00  8.37500000E-01
      4.50000000E+00  8.00000000E+00  8.27500000E-01
      5.00000000E+00  8.00000000E+00  8.17500000E-01
      5.50000000E+00  8.00000000E+00  8.07500000E-01
      6.00000000E+00  8.00000000E+00  7.97500000E-01
      6.50000000E+00  8.00000000E+00  7.87500000E-01
      7.00000000E+00  8.00000000E+00  7.77500000E-01
      7.50000000E+00  8.00000000E+00  7.67500000E-01
      8.00000000E+00  8.00000000E+00  7.57500000E-01
      8.50000000E+00  8.00000000E+00  7.47500000E-01
      9.00000000E+00  8.00000000E+00  7.37500000E-01
      9.50000000E+00  8.00000000E+00  7.27500000E-01
      1.00000000E+01  8.00000000E+00  7.26666667E-01
      0.00000000E+00  7.50000000E+00  8.83333333E-01
      5.00000000E-01  7.50000000E+00  8.82500000E-01
      1.00000000E+00  7.50000000E+00  8.72500000E-01
      1.50000000E+00  7.50000000E+00  8.62500000E-01
      2.00000000E+00  7.50000000E+00  8.52500000E-01
      2.50000000E+00  7.50000000E+00  8.42500000E-01
      3.00000000E+00  7.50000000E+00  8.32500000E-01
      3.50000000E+00  7.50000000E+00  8.22500000E-01
      4.00000000E+00  7.50000000E+00  8.12500000E-01
      4.50000000E+00  7.50000000E+00  8.02500000E-01
      5.00000000E+00  7.50000000E+00  7.92500000E-01
      5.50000000E+00  7.50000000E+00  7.82500000E-01
      6.00000000E+00  7.50000000E+00  7.72500000E-01
      6.50000000E+00  7.50000000E+00  7.62500000E-01
      7.00000000E+00  7.50000000E+00  7.52500000E-01
      7.50000000E+00  7.50000000E+00  7.42500000E-01
      8.00000000E+00  7.50000000E+00  7.32500000E-01
      8.50000000E+00  7.50000000E+00  7.22500000E-01
      9.00000000E+00  7.50000000E+00  7.12500000E-01
      9.50000000E+00  7.50000000E+00  7.02500000E-01
      1.00000000E+01  7.50000000E+00  7.01666667E-01
      0.00000000E+00  7.00000000E+00  8.58333333E-01
      5.00000000E-01  7.00000000E+00  8.57500000E-01
      1.00000000E+00  7.00000000E+00  8.47500000E-01
      1.50000000E+00  7.00000000E+00  8.37500000E-01
      2.00000000E+00  7.00000000E+00  8.27500000E-01
      2.50000000E+00  7.00000000E+00  8.17500000E-01
      3.00000000E+00  7.00000000E+00  8.07500000E-01
      3.50000000E+00  7.00000000E+00  7.97500000E-01
      4.00000000E+00  7.00000000E+00  7.87500000E-01
      4.50000000E+00  7.00000000E+00  7.77500000E-01
      5.00000000E+00  7.00000000E+00  7.67500000E-01
      5.50000000E+00  7.00000000E+00  7.57500000E-01
      6.00000000E+00  7.00000000E+00  7.47500000E-01
      6.50000000E+00  7.00000000E+00  7.37500000E-01
      7.00000000E+00  7.00000000E+00  7.27500000E-01
      7.50000000E+00  7.00000000E+00  7.17500000E-01
      8.00000000E+00  7.00000000E+00  7.07500000E-01
      8.50000000E+00  7.00000000E+00  6.97500000E-01
      9.00000000E+00  7.00000000E+00  6.87500000E-01
      9.50000000E+00  7.00000000E+00  6.77500000E-01
      1.00000000E+01  7.00000000E+00  6.76666667E-01
      0.00000000E+00  6.50000000E+00  8.33333333E-01
      5.00000000E-01  6.50000000E+00  8.32500000E-01
      1.00000000E+00  6.50000000E+00  8.22500000E-01
      1.50000000E+00  6.50000000E+00  8.12500000E-01
      2.00000000E+00  6.50000000E+00  8.02500000E-01
      2.50000000E+00  6.50000000E+00  7.92500000E-01
      3.00000000E+00  6.50000000E+00  7.82500000E-01
      3.50000000E+00  6.50000000E+00  7.72500000E-01
      4.00000000E+00  6.50000000E+00  7.62500000E-01
      4.50000000E+00  6.50000000E+00  7.52500000E-01
      5.00000000E+00  6.50000000E+00  7.42500000E-01
      5.50000000E+00  6.50000000E+00  7.32500000E-01
      6.00000000E+00  6.50000000E+00  7.22500000E-01
      6.50000000E+00  6.50000000E+00  7.12500000E-01
      7.00000000E+00  6.50000000E+00  7.02500000E-01
      7.50000000E+00  6.50000000E+00  6.92500000E-01
      8.00000000E+00  6.50000000E+00  6.82500000E-01
      8.50000000E+00  6.50000000E+00  6.72500000E-01
      9.00000000E+00  6.50000000E+00  6.62500000E-01
      9.50000000E+00  6.50000000E+00  6.52500000E-01
      1.00000000E+01  6.50000000E+00  6.51666667E-01
      0.00000000E+00  6.00000000E+00  8.08333333E-01
      5.00000000E-01  6.00000000E+00  8.07500000E-01
      1.00000000E+00  6.00000000E+00  7.97500000E-01
      1.50000000E+00  6.00000000E+00  7.87500000E-01
      2.00000000E+00  6.00000000E+00  7.77500000E-01
      2.50000000E+00  6.00000000E+00  7.67500000E-01
      3.00000000E+00  6.00000000E+00  7.57500000E-01
      3.50000000E+00  6.00000000E+00  7.47500000E-01
      4.00000000E+00  6.00000000E+00  7.37500000E-01
      4.50000000E+00  6.00000000E+00  7.27500000E-01
      5.00000000E+00  6.00000000E+00  7.17500000E-01
      5.50000000E+00  6.00000000E+00  7.07500000E-01
      6.00000000E+00  6.00000000E+00  6.97500000E-01
      6.50000000E+00  6.00000000E+00  6.87500000E-01
      7.00000000E+00  6.00000000E+00  6.77500000E-01
      7.50000000E+00  6.00000000E+00  6.67500000E-01
      8.00000000E+00  6.00000000E+00  6.57500000E-01
[...]
POINT_DATA     7056
SCALARS pressure float
LOOKUP_TABLE default
 -0.13957750672113323     
 -0.13871638156850533     
 -0.13844779851872163     
 -0.13830171689004375     
 -0.13813910269548649     
 -0.13797597711794368     
 -0.13782144557263801     
 -0.13765777678948887     
 -0.13748559036879532     
 -0.13729867686783845     
 -0.13708944249977528     
 -0.13684248188250875     
 -0.13654529051241479     
 -0.13617722760782244     
 -0.13570732917589295     
 -0.13509486289281875     
 -0.13427952716673491     
 -0.13315778342332324     
 -0.13190445797798975     
 -0.12847655101059888     
 -0.12784968371394576     
 -0.13806828033913987     
 -0.13757001912035763     
 -0.13644892381164306     
 -0.13649475441381065     
 -0.13633168295455095     
 -0.13617583680149464     
 -0.13600961179480064     
 -0.13583104117605829     
 -0.13563084579064802     
 -0.13540790790111257     
 -0.13514711516009428     
 -0.13483819664116406     
 -0.13446224087288869     
 -0.13399315282665086     
 -0.13339554805760051     
 -0.13261958579525451     
 -0.13159614677960124     
 -0.13022942920177297     
 -0.12856325722428416     
 -0.12505196540817187     
 -0.12519335952340216     
 -0.13699882600466362     
 -0.13612470941754801     
 -0.13457299030352110     
 -0.13448297205721757     
 -0.13405778915339661     
 -0.13366301460997568     
 -0.13325978943631744     
 -0.13284027799168505     
 -0.13239417712087492     
 -0.13190903238662505     
 -0.13136847536469073     
 -0.13075019269331847     
 -0.13002625338488871     
 -0.12915869974606031     
 -0.12810193982067503     
 -0.12680035198653700     
 -0.12519193990994362     
 -0.12319098560848697     
 -0.12079904604479375     
 -0.11664811617033020     
 -0.11618088406417300     
 -0.13596319739176349     
 -0.13545664562742923     
 -0.13362436668765285     
 -0.13328119911018502     
 -0.13260451322923264     
 -0.13195256064935465     
 -0.13128148109337981     
 -0.13058159973288483     
 -0.12983940503662705     
 -0.12903631837230070     
 -0.12815032252994807     
 -0.12715371480024887     
 -0.12601484487985626     
 -0.12469666869000859     
 -0.12314977533348433     
 -0.12130565153463349     
 -0.11908561279968764     
 -0.11639767434423161     
 -0.11320085940733492     
 -0.10831322997974890     
 -0.10792543519938175     
 -0.13463217119634860     
 -0.13428338605376500     
 -0.13206711090161710     
 -0.13139516538328622     
 -0.13042304797237295     
 -0.12946250514049681     
 -0.12847519590644785     
 -0.12744745023398457     
 -0.12636374501534248     
 -0.12520562085803877     
 -0.12395255083943423     
 -0.12257264271431625     
 -0.12102170149016817     
 -0.11924620425302823     
 -0.11718305831387153     
 -0.11475674485999177     
 -0.11187256307935892     
 -0.10840253323650798     
 -0.10419791411891353     
  -9.8352042659280270E-002
  -9.7933076932411989E-002
 -0.13294578490175990     
 -0.13273888581953674     
 -0.13013321810529366     
 -0.12907220191710700     
 -0.12774874760998231     
 -0.12642601212198040     
 -0.12507458909871927     
 -0.12368578084380913     
 -0.12224221601092482     
 -0.12071459330078205     
 -0.11906655075228645     
 -0.11725568236509352     
 -0.11523051213782953     
 -0.11292627458817278     
 -0.11025945784317273     
 -0.10711130071635455     
 -0.10332818449433810     
  -9.8910032050172736E-002
  -9.3877503115595576E-002
  -8.7492370721092380E-002
  -8.7032305011931724E-002
 -0.13080879824997038     
 -0.13074246540391954     
 -0.12771114524056632     
 -0.12620680780159058     
 -0.12449136636168324     
 -0.12278642409727068     
 -0.12106024095315235     
 -0.11928779809330133     
 -0.11744058718536543     
 -0.11548399861259757     
 -0.11337479115905198     
 -0.11105633282999428     
 -0.10845248426088371     
 -0.10545426924030120     
 -0.10197152408141992     
  -9.8039656647711984E-002
  -9.3605788401656842E-002
  -8.8590374337637362E-002
  -8.2613723244870027E-002
  -7.5117364194437083E-002
  -7.4600964286330854E-002
 -0.12812433782853508     
 -0.12819542758929922     
 -0.12472210342459999     
 -0.12275640332033211     
 -0.12063366403563744     
 -0.11850899440056968     
 -0.11634939766302617     
 -0.11412613505663877     
 -0.11180112004374679     
 -0.10932332132772916     
 -0.10661992289165248     
 -0.10360405262696587     
 -0.10027780650348544     
  -9.6649132743595947E-002
  -9.2652418974258993E-002
  -8.8213441042760687E-002
  -8.2991636161692126E-002
  -7.6919750933603856E-002
  -7.0201492354262540E-002
  -6.2593582455005722E-002
  -6.2161562794862971E-002
 -0.12484204745642977     
 -0.12500772042342415     
 -0.12112065573881671     
 -0.11864639716005701     
 -0.11604381720659367     
 -0.11342283411204815     
 -0.11074135123659655     
 -0.10794971770042318     
 -0.10497717617060812     
 -0.10179345365496807     
  -9.8457236105066945E-002
  -9.4934786962487153E-002
  -9.1177191892188675E-002
  -8.7093656603742589E-002
  -8.2346382920177166E-002
  -7.7030833903460522E-002
  -7.1233359484231235E-002
  -6.4913971789434408E-002
  -5.8140784000013407E-002
  -4.9807927217229882E-002
  -4.9305069990012260E-002
 -0.12092149291697429     
 -0.12107959832121237     
 -0.11674862529587408     
 -0.11367527842331017     
 -0.11048524036289797     
 -0.10722107450168027     
 -0.10381095458692281     
 -0.10030454052487785     
  -9.6758095887947759E-002
  -9.3135207878316043E-002
  -8.9399068449988045E-002
  -8.5401391532241744E-002
  -8.0878599787976915E-002
  -7.6072934159378991E-002
  -7.0954164985226512E-002
  -6.5485704480546386E-002
  -5.9768946791560383E-002
  -5.2969129811725572E-002
  -4.5449149496631244E-002
  -3.7240631187105008E-002
  -3.6875412199847656E-002
 -0.11614498309721803     
 -0.11619907871333779     
 -0.11134120007878680     
 -0.10750031704449206     
 -0.10347802890125195     
  -9.9450311780523284E-002
  -9.5475751667045389E-002
  -9.1533813205254583E-002
  -8.7572807282234891E-002
  -8.3339361321785987E-002
  -7.8862999156439642E-002
  -7.4302647101692154E-002
  -6.9587915744390910E-002
  -6.4725586674421520E-002
  -5.9756526064194841E-002
  -5.3989141190592477E-002
  -4.7706603261265031E-002
  -4.0874337041874695E-002
  -3.3586054191758127E-002
  -2.5175747473545396E-002
  -2.4790812147450218E-002
 -0.11011559846976453     
 -0.11003638434447149     
 -0.10438678541477882     
  -9.9623682526797652E-002
  -9.4972026298519932E-002
  -9.0464372916214106E-002
  -8.6002759546918509E-002
  -8.1297161017441402E-002
  -7.6639148194431322E-002
  -7.2039313527840737E-002
  -6.7453630402404000E-002
  -6.2934038857210620E-002
  -5.8359426566115993E-002
  -5.3220573091547312E-002
  -4.7840774390952953E-002
  -4.2135887329332065E-002
  -3.6258869595603871E-002
  -2.9556603668863698E-002
  -2.2127066983665563E-002
  -1.3985663890203556E-002
  -1.3766472419622051E-002
 -0.10217479179159195     
 -0.10196357826450887     
  -9.5711568764419885E-002
  -9.0355833979997663E-002
  -8.5101647382182954E-002
  -7.9716469436573539E-002
  -7.4568169949016688E-002
  -6.9627477478590771E-002
  -6.4928519483792968E-002
  -6.0491543412784822E-002
  -5.5821872270730211E-002
  -5.1041090354697623E-002
  -4.6207926356048493E-002
  -4.1275122603710988E-002
  -3.6357051652535048E-002
  -3.0950573826985916E-002
  -2.5111877677925540E-002
  -1.8772731659918090E-002
  -1.1540646001113659E-002
  -2.9512912669379808E-003
  -2.9753519446118612E-003
  -9.2567967704400247E-002
  -9.2248021332522356E-002
  -8.5474120146460691E-002
  -7.9091535243642194E-002
  -7.3101768382905760E-002
  -6.7500690643436986E-002
  -6.2387782229788274E-002
  -5.7539851923991511E-002
  -5.2629535040160311E-002
  -4.7904599846329082E-002
  -4.3273679675483970E-002
  -3.8796660286469067E-002
  -3.4457578505958306E-002
  -2.9834005153621508E-002
  -2.5036719562270611E-002
  -2.0096954982157557E-002
  -1.4916153934965211E-002
  -8.8660530895780139E-003
   1.3007950692256053E-004
   3.9267984548846396E-004
   3.2425977715501246E-004
  -8.0747503184914388E-002
  -8.0390713869795599E-002
  -7.2838433570478173E-002
  -6.6167847337419095E-002
  -6.0289625355390855E-002
  -5.4550423256807180E-002
  -4.9152616528352976E-002
  -4.4121094864554268E-002
  -3.9505270820378448E-002
  -3.5306725930426199E-002
  -3.0995481852061961E-002
  -2.6732827637054313E-002
  -2.2633609222777264E-002
  -1.8620435797548615E-002
  -1.4405653758047116E-002
  -1.0090873397944729E-002
  -5.9265471063486216E-003
   1.4079974977505532E-004
   6.0169100126515542E-004
   1.0022359176801610E-003
   1.0701857792590756E-003
  -6.6895484869592250E-002
  -6.6551503230364323E-002
  -5.9135938035813726E-002
  -5.2145842289090638E-002
  -4.5867961248622316E-002
  -4.0278471878121808E-002
  -3.5381495855764541E-002
  -3.0646079164108823E-002
  -2.6384986794211057E-002
  -2.2463567308958200E-002
  -1.8697358590471808E-002
  -1.4791963455771037E-002
  -1.1409550536337441E-002
  -8.2182439256114990E-003
  -3.8147845353566144E-003
   1.1466368251955611E-004
   3.3453537624364410E-004
   6.3928215889175622E-004
   1.2578186642113205E-003
   1.5937562998805587E-003
   1.4932898923454962E-003
  -5.1707869260756129E-002
  -5.1364157549054400E-002
  -4.3353127946981554E-002
  -3.6718461112222739E-002
  -3.0929949344220962E-002
  -2.5728552547108072E-002
  -2.1066949992553832E-002
  -1.6662607481640015E-002
  -1.3301100900757788E-002
  -1.0332960486451971E-002
  -7.2235832918356880E-003
  -1.0366176946111174E-003
   1.2898939666007404E-004
   3.0009338691826650E-004
   4.6818445603047447E-004
   6.8616275629416546E-004
   1.0259774939165506E-003
   1.4149524729157267E-003
   1.9827641272164675E-003
   2.1082951307626581E-003
   1.8416870456420531E-003
  -3.4965809902457679E-002
  -3.4688933727250487E-002
  -2.6427036724389206E-002
  -2.0114409896548655E-002
  -1.5415335230880662E-002
  -1.0794408776938607E-002
  -6.9825781054358421E-003
   3.8762163942204477E-005
   2.0129836139278515E-004
   3.6411580849655939E-004
   5.1513824427855826E-004
   6.6429083733006466E-004
   8.5215900534588791E-004
   1.1164003320654305E-003
   1.3762874934528579E-003
   1.6365416719501169E-003
   1.9092151412947265E-003
   2.2237745617822010E-003
   2.7666246758535941E-003
   2.7051090044339508E-003
   2.2432853456988851E-003
  -1.6974121836454234E-002
  -1.6598810165802155E-002
  -4.6790230885366537E-003
   1.9961944718111384E-004
   4.7744373769086188E-004
   7.1375715547246702E-004
   9.1530132946730032E-004
   1.1077246708972655E-003
   1.3501400000757004E-003
   1.6154328589494274E-003
   1.8520575963043371E-003
   2.0772270935136908E-003
   2.2799137550541778E-003
   2.4679069697485772E-003
   2.6614107821466048E-003
   2.8727927418482212E-003
   3.1199838149225290E-003
   3.4240169169392340E-003
   3.9627843174423680E-003
   3.5689932944619747E-003
   2.7997480849360329E-003
   1.0602229027982136E-003
   1.1354000012984468E-003
   1.8616991815514601E-003
   2.4788228729369574E-003
   2.8462077957334040E-003
   3.0578278145315693E-003
   3.2082140748579554E-003
   3.3119688395876717E-003
   3.3766499772887367E-003
   3.4240182728637234E-003
   3.4758481894082266E-003
   3.5371583439146510E-003
   3.6100646034827231E-003
   3.6983535467417575E-003
   3.8062534294652549E-003
   3.9383438198146506E-003
   4.1046034647035830E-003
   4.3221790785507004E-003
   4.6829945516170162E-003
   4.7079516279422418E-003
   3.8309680769751707E-003
   1.6150384188207635E-003
   1.9666695102054130E-003
   3.1858360473637870E-003
   4.4369540801802677E-003
   4.8768313725403786E-003
   4.8185106637140644E-003
   4.7367248325694295E-003
   4.6122177662115899E-003
   4.4792368975503866E-003
   4.3620023031078932E-003
   4.2704517806178210E-003
   4.2071085413901413E-003
   4.1716407221649718E-003
   4.1639609108866799E-003
   4.1850886882041404E-003
   4.2363623056036652E-003
   4.3210610551423232E-003
   4.4478675822422773E-003
   4.6530012581825486E-003
   4.8764992421003192E-003
   4.9348973016658153E-003
 -0.13376936209760729     
 -0.13296821752408108     
 -0.13269972808122232     
 -0.13255413520864176     
 -0.13239183344376743     
 -0.13222902431334208     
 -0.13207477656924610     
 -0.13191138720978574     
 -0.13173945793472566     
 -0.13155276064084140     
 -0.13134367305502231     
 -0.13109676737551756     
 -0.13079946709367782     
 -0.13043103253415281     
 -0.12996038910495888     
 -0.12934668717738823     
 -0.12852951278694635     
 -0.12740521908362182     
 -0.12614723763256680     
 -0.12271172104852217     
 -0.12218750555049335     
 -0.13232739492757037     
 -0.13194370882707818     
 -0.13082071790654651     
 -0.13086750675656408     
 -0.13070512102751713     
 -0.13054988719361438     
 -0.13038419244094052     
 -0.13020602380446245     
 -0.13000607542081188     
 -0.12978314886213568     
 -0.12952210125748903     
 -0.12921255974735854     
 -0.12883550951761402     
 -0.12836475793711002     
 -0.12776483529627691     
 -0.12698573777086500     
 -0.12595801830511905     
 -0.12458529946244626     
 -0.12290969669265164     
 -0.11938690550386725     
 -0.11962580729037793     
 -0.13126155527030803     
 -0.13050370734119676     
 -0.12895080984210353     
 -0.12886204911536023     
 -0.12843768838023575     
 -0.12804339298600659     
 -0.12764040084313419     
 -0.12722080306955399     
 -0.12677422474860639     
 -0.12628814582069881     
 -0.12574613462912781     
 -0.12512578921949521     
 -0.12439902818250664     
 -0.12352762486236175     
 -0.12246552058931046     
 -0.12115640753787112     
 -0.11953815640202158     
 -0.11752641822688742     
 -0.11512209828404799     
 -0.11096100140968070     
 -0.11059115028710771     
 -0.13022741567276294     
 -0.12983812376693110     
 -0.12800485354584307     
 -0.12766286927274803     
 -0.12698663167156479     
 -0.12633444259398105     
 -0.12566257249751481     
 -0.12496127619847291     
 -0.12421701421937963     
 -0.12341110954456146     
 -0.12252133881425618     
 -0.12151965402370458     
 -0.12037395409758342     
 -0.11904712407505140     
 -0.11749064552312981     
 -0.11563623323287262     
 -0.11340505265144032     
 -0.11070548156125878     
 -0.10749632906154061     
 -0.10260355264791345     
 -0.10230883006511303     
 -0.12889794501029517     
 -0.12866608674932034     
 -0.12644870075565445     
 -0.12577699044895066     
 -0.12480400329140437     
 -0.12384167178556334     
 -0.12285177280585952     
 -0.12182045044907441     
 -0.12073191039880524     
 -0.11956736917185895     
 -0.11830635915991439     
 -0.11691778951910120     
 -0.11535763853617526     
 -0.11357219136940910     
 -0.11149834924908392     
 -0.10906087165502250     
 -0.10616574140035390     
 -0.10268690609514941     
  -9.8474303592564344E-002
  -9.2613716289283637E-002
  -9.2279002866631252E-002
 -0.12721227575475741     
 -0.12712002638224967     
 -0.12451291030381530     
 -0.12345017016939996     
 -0.12212377066063496     
 -0.12079663685977700     
 -0.11943917343116016     
 -0.11804273039211487     
 -0.11659086940186858     
 -0.11505464282319976     
 -0.11339749173707062     
 -0.11157692606477668     
 -0.10954153890494835     
 -0.10722689082497584     
 -0.10455022532459432     
 -0.10139432232089150     
  -9.7601776140533059E-002
  -9.3162506207423224E-002
  -8.8106201029172507E-002
  -8.1707519887315477E-002
  -8.1319043098569091E-002
 -0.12507343786199770     
 -0.12511825987761541     
 -0.12208448886427103     
 -0.12057501307443920     
 -0.11885255002704451     
 -0.11713911488770758     
 -0.11540429213871636     
 -0.11362298069762636     
 -0.11176654159586900     
 -0.10980037670688035     
 -0.10768144109923201     
 -0.10535348892901214     
 -0.10274131055786516     
  -9.9736147070829367E-002
  -9.6239589822974383E-002
  -9.2287289874297254E-002
  -8.7831557609850813E-002
  -8.2794611529061285E-002
  -7.6809500428748775E-002
  -6.9292680332814174E-002
  -6.8832369251993958E-002
 -0.12238263876742560     
 -0.12256092601865110     
 -0.11908108516812772     
 -0.11710565195435109     
 -0.11497374112931749     
 -0.11283966724310536     
 -0.11067047861178189     
 -0.10843760033728053     
 -0.10610327211457522     
 -0.10361699536353285     
 -0.10090672708105147     
  -9.7882370758003004E-002
  -9.4538455277776018E-002
  -9.0890346871077887E-002
  -8.6872754388566009E-002
  -8.2414596642010562E-002
  -7.7185987292939309E-002
  -7.1088036224172535E-002
  -6.4341885581456579E-002
  -5.6709553986233452E-002
  -5.6312330534669788E-002
 -0.11908582563580242     
 -0.11935426458650385     
 -0.11545791388416356     
 -0.11297294417147973     
 -0.11036025495561061     
 -0.10772936950660997     
 -0.10503875668945419     
 -0.10223959686262954     
  -9.9260667734834815E-002
  -9.6063436014140913E-002
  -9.2708957493214034E-002
  -8.9167611447879186E-002
  -8.5390116841062555E-002
  -8.1291373945616016E-002
  -7.6535792430994384E-002
  -7.1196697373710330E-002
  -6.5374767371897166E-002
  -5.9028265686864673E-002
  -5.2239308655414325E-002
  -4.3890003813394883E-002
  -4.3412663493949233E-002
 -0.11514663929196714     
 -0.11540240944923200     
 -0.11106105616044271     
 -0.10797662655297598     
 -0.10477728643352197     
 -0.10150611736312543     
  -9.8088482172727906E-002
  -9.4564831974320890E-002
  -9.0999870186305412E-002
  -8.7357770076440300E-002
  -8.3603565987784290E-002
  -7.9597099918272102E-002
  -7.5060067675123729E-002
  -7.0232716361096501E-002
  -6.5092320650463345E-002
  -5.9600182329041546E-002
  -5.3861082420802064E-002
  -4.7048802785701872E-002
  -3.9509461695961277E-002
  -3.1286162560395965E-002
  -3.0932048389635161E-002
 -0.11035002233810894     
 -0.11049416348098066     
 -0.10562728312238720     
 -0.10177866516216620     
  -9.7747773159542375E-002
  -9.3701163121348768E-002
  -8.9707236758953215E-002
  -8.5745503768351050E-002
  -8.1769335187574746E-002
  -7.7531068774169140E-002
  -7.3033696846379087E-002
  -6.8453303369885032E-002
  -6.3718923735687868E-002
  -5.8834861881160216E-002
  -5.3847016322374069E-002
  -4.8069726676562924E-002
  -4.1770758424099518E-002
  -3.4922355551718992E-002
  -2.7621303574455348E-002
  -1.9203266822077587E-002
  -1.8824684795729078E-002
 -0.10430136676302286     
 -0.10430390769306871     
  -9.8649243904626371E-002
  -9.3865908250543501E-002
  -8.9193623859586721E-002
  -8.4665544878171350E-002
  -8.0192871364343957E-002
  -7.5475365336588149E-002
  -7.0797065071327381E-002
  -6.6178244529787988E-002
  -6.1572751697337086E-002
  -5.7033636390748155E-002
  -5.2452091905941862E-002
  -4.7297846994744486E-002
  -4.1903949438867286E-002
  -3.6185986756697090E-002
  -3.0294316372736416E-002
  -2.3584217679217891E-002
  -1.6145509506438244E-002
  -7.9988772046800990E-003
  -7.7814173774326256E-003
  -9.6335965741131679E-002
  -9.6196177650793163E-002
  -8.9924906533474930E-002
  -8.4546897542136720E-002
  -7.9284596507777541E-002
  -7.3881294389199187E-002
  -6.8712955143731186E-002
  -6.3753349066599185E-002
  -5.9034208049797220E-002
  -5.4579369361343000E-002
  -4.9903904541405655E-002
  -4.5110543401501120E-002
  -4.0266020526864683E-002
  -3.5321790960080285E-002
  -3.0392337699088924E-002
  -2.4980507839447528E-002
  -1.9134696899455923E-002
  -1.2786217955247824E-002
  -5.5521133826548913E-003
   2.9804765372076283E-003
   2.9636103791942049E-003
  -8.6691948582606079E-002
  -8.6426385897226676E-002
  -7.9645559848171149E-002
  -7.3244021458734640E-002
  -6.7233848626334025E-002
  -6.1612288509406449E-002
  -5.6479246362829257E-002
  -5.1624347290862911E-002
  -4.6701119838502225E-002
  -4.1964921896907932E-002
  -3.7323374019743595E-002
  -3.2836613965358648E-002
  -2.8491506085354813E-002
  -2.3861760181640601E-002
  -1.9059505317915823E-002
  -1.4115134426117575E-002
  -8.9298869587838541E-003
  -2.8783144179363759E-003
   6.0009315740353186E-003
   6.4441641115982103E-003
   6.3502121651813608E-003
  -7.4844013654932040E-002
  -7.4529571121499050E-002
  -6.6959227066930513E-002