# vtk DataFile Version 2.0
3D Unstructured Grid of Linear Triangles
ASCII
DATASET UNSTRUCTURED_GRID
FIELD FieldData  1
TIME 1 1 double
        7205.43531
POINTS     7056 float
      0.00000000E+00  1.00000000E+01  1.00000000E+00
      5.00000000E-01  1.00000000E+01  9.93333333E-01
      1.00000000E+00  1.00000000E+01  9.83333333E-01
      1.50000000E+00  1.00000000E+01  9.73333333E-01
      2.00000000E+00  1.00000000E+01  9.63333333E-01
      2.50000000E+00  1.00000000E+01  9.53333333E-01
      3.00000000E+00  1.00000000E+01  9.43333333E-01
      3.50000000E+00  1.00000000E+01  9.33333333E-01
      4.00000000E+00  1.00000000E+01  9.23333333E-01
      4.50000000E+00  1.00000000E+01  9.13333333E-01
      5.00000000E+00  1.00000000E+01  9.03333333E-01
      5.50000000E+00  1.00000000E+01  8.93333333E-01
      6.00000000E+00  1.00000000E+01  8.83333333E-01
      6.50000000E+00  1.00000000E+01  8.73333333E-01
      7.00000000E+00  1.00000000E+01  8.63333333E-01
      7.50000000E+00  1.00000000E+01  8.53333333E-01
      8.00000000E+00  1.00000000E+01  8.43333333E-01
      8.50000000E+00  1.00000000E+01  8.33333333E-01
      9.00000000E+00  1.00000000E+01  8.23333333E-01
      9.50000000E+00  1.00000000E+01  8.13333333E-01
      1.00000000E+01  1.00000000E+01  8.10000000E-01
      0.00000000E+00  9.50000000E+00  9.83333333E-01
      5.00000000E-01  9.50000000E+00  9.82500000E-01
      1.00000000E+00  9.50000000E+00  9.72500000E-01
      1.50000000E+00  9.50000000E+00  9.62500000E-01
      2.00000000E+00  9.50000000E+00  9.52500000E-01
      2.50000000E+00  9.50000000E+00  9.42500000E-01
      3.00000000E+00  9.50000000E+00  9.32500000E-01
      3.50000000E+00  9.50000000E+00  9.22500000E-01
      4.00000000E+00  9.50000000E+00  9.12500000E-01
      4.50000000E+00  9.50000000E+00  9.02500000E-01
      5.00000000E+00  9.50000000E+00  8.92500000E-01
      5.50000000E+00  9.50000000E+00  8.82500000E-01
      6.00000000E+00  9.50000000E+00  8.72500000E-01
      6.50000000E+00  9.50000000E+00  8.62500000E-01
      7.00000000E+00  9.50000000E+00  8.52500000E-01
      7.50000000E+00  9.50000000E+00  8.42500000E-01
      8.00000000E+00  9.50000000E+00  8.32500000E-01
      8.50000000E+00  9.50000000E+00  8.22500000E-01
      9.00000000E+00  9.50000000E+00  8.12500000E-01
      9.50000000E+00  9.50000000E+00  8.02500000E-01
      1.00000000E+01  9.50000000E+00  8.01666667E-01
      0.00000000E+00  9.00000000E+00  9.58333333E-01
      5.00000000E-01  9.00000000E+00  9.57500000E-01
      1.00000000E+00  9.00000000E+00  9.47500000E-01
      1.50000000E+00  9.00000000E+00  9.37500000E-01
      2.00000000E+00  9.00000000E+00  9.27500000E-01
      2.50000000E+00  9.00000000E+00  9.17500000E-01
      3.00000000E+00  9.00000000E+00  9.07500000E-01
      3.50000000E+00  9.00000000E+00  8.97500000E-01
      4.00000000E+00  9.00000000E+00  8.87500000E-01
      4.50000000E+00  9.00000000E+00  8.77500000E-01
      5.00000000E+00  9.00000000E+00  8.67500000E-01
      5.50000000E+00  9.00000000E+00  8.57500000E-01
      6.00000000E+00  9.00000000E+00  8.47500000E-01
      6.50000000E+00  9.00000000E+00  8.37500000E-01
      7.00000000E+00  9.00000000E+00  8.27500000E-01
      7.50000000E+00  9.00000000E+00  8.17500000E-01
      8.00000000E+00  9.00000000E+00  8.07500000E-01
      8.50000000E+00  9.00000000E+00  7.97500000E-01
      9.00000000E+00  9.00000000E+00  7.87500000E-01
      9.50000000E+00  9.00000000E+00  7.77500000E-01
      1.00000000E+01  9.00000000E+00  7.76666667E-01
      0.00000000E+00  8.50000000E+00  9.33333333E-01
      5.00000000E-01  8.50000000E+00  9.32500000E-01
      1.00000000E+00  8.50000000E+00  9.22500000E-01
      1.50000000E+00  8.50000000E+00  9.12500000E-01
      2.00000000E+00  8.50000000E+00  9.02500000E-01
      2.50000000E+00  8.50000000E+00  8.92500000E-01
      3.00000000E+00  8.50000000E+00  8.82500000E-01
      3.50000000E+00  8.50000000E+00  8.72500000E-01
      4.00000000E+00  8.50000000E+00  8.62500000E-01
      4.50000000E+00  8.50000000E+00  8.52500000E-01
      5.00000000E+00  8.50000000E+00  8.42500000E-01
      5.50000000E+00  8.50000000E+00  8.32500000E-01
      6.00000000E+00  8.50000000E+00  8.22500000E-01
      6.50000000E+00  8.50000000E+00  8.12500000E-01
      7.00000000E+00  8.50000000E+00  8.02500000E-01
      7.50000000E+00  8.50000000E+00  7.92500000E-01
      8.00000000E+00  8.50000000E+00  7.82500000E-01
      8.50000000E+00  8.50000000E+00  7.72500000E-01
      9.00000000E+00  8.50000000E+00  7.62500000E-01
      9.50000000E+00  8.50000000E+00  7.52500000E-01
      1.00000000E+01  8.50000000E+00  7.51666667E-01
      0.00000000E+00  8.00000000E+00  9.08333333E-01
      5.00000000E-01  8.00000000E+00  9.07500000E-01
      1.00000000E+00  8.00000000E+00  8.97500000E-01
      1.50000000E+00  8.00000000E+00  8.87500000E-01
      2.00000000E+00  8.00000000E+00  8.77500000E-01
      2.50000000E+00  8.00000000E+00  8.67500000E-01
      3.00000000E+00  8.00000000E+00  8.57500000E-01
      3.50000000E+00  8.00000000E+00  8.47500000E-01
      4.00000000E+00  8.00000000E+00  8.37500000E-01
      4.50000000E+00  8.00000000E+00  8.27500000E-01
      5.00000000E+00  8.00000000E+00  8.17500000E-01
      5.50000000E+00  8.00000000E+00  8.07500000E-01
      6.00000000E+00  8.00000000E+00  7.97500000E-01
      6.50000000E+00  8.00000000E+00  7.87500000E-01
      7.00000000E+00  8.00000000E+00  7.77500000E-01
      7.50000000E+00  8.00000000E+00  7.67500000E-01
      8.00000000E+00  8.00000000E+00  7.57500000E-01
      8.50000000E+00  8.00000000E+00  7.47500000E-01
      9.00000000E+00  8.00000000E+00  7.37500000E-01
      9.50000000E+00  8.00000000E+00  7.27500000E-01
      1.00000000E+01  8.00000000E+00  7.26666667E-01
      0.00000000E+00  7.50000000E+00  8.83333333E-01
      5.00000000E-01  7.50000000E+00  8.82500000E-01
      1.00000000E+00  7.50000000E+00  8.72500000E-01
      1.50000000E+00  7.50000000E+00  8.62500000E-01
      2.00000000E+00  7.50000000E+00  8.52500000E-01
      2.50000000E+00  7.50000000E+00  8.42500000E-01
      3.00000000E+00  7.50000000E+00  8.32500000E-01
      3.50000000E+00  7.50000000E+00  8.22500000E-01
      4.00000000E+00  7.50000000E+00  8.12500000E-01
      4.50000000E+00  7.50000000E+00  8.02500000E-01
      5.00000000E+00  7.50000000E+00  7.92500000E-01
      5.50000000E+00  7.50000000E+00  7.82500000E-01
      6.00000000E+00  7.50000000E+00  7.72500000E-01
      6.50000000E+00  7.50000000E+00  7.62500000E-01
      7.00000000E+00  7.50000000E+00  7.52500000E-01
      7.50000000E+00  7.50000000E+00  7.42500000E-01
      8.00000000E+00  7.50000000E+00  7.32500000E-01
      8.50000000E+00  7.50000000E+00  7.22500000E-01
      9.00000000E+00  7.50000000E+00  7.12500000E-01
      9.50000000E+00  7.50000000E+00  7.02500000E-01
      1.00000000E+01  7.50000000E+00  7.01666667E-01
      0.00000000E+00  7.00000000E+00  8.58333333E-01
      5.00000000E-01  7.00000000E+00  8.57500000E-01
      1.00000000E+00  7.00000000E+00  8.47500000E-01
      1.50000000E+00  7.00000000E+00  8.37500000E-01
      2.00000000E+00  7.00000000E+00  8.27500000E-01
      2.50000000E+00  7.00000000E+00  8.17500000E-01
      3.00000000E+00  7.00000000E+00  8.07500000E-01
      3.50000000E+00  7.00000000E+00  7.97500000E-01
      4.00000000E+00  7.00000000E+00  7.87500000E-01
      4.50000000E+00  7.00000000E+00  7.77500000E-01
      5.00000000E+00  7.00000000E+00  7.67500000E-01
      5.50000000E+00  7.00000000E+00  7.57500000E-01
      6.00000000E+00  7.00000000E+00  7.47500000E-01
      6.50000000E+00  7.00000000E+00  7.37500000E-01
      7.00000000E+00  7.00000000E+00  7.27500000E-01
      7.50000000E+00  7.00000000E+00  7.17500000E-01
      8.00000000E+00  7.00000000E+00  7.07500000E-01
      8.50000000E+00  7.00000000E+00  6.97500000E-01
      9.00000000E+00  7.00000000E+00  6.87500000E-01
      9.50000000E+00  7.00000000E+00  6.77500000E-01
      1.00000000E+01  7.00000000E+00  6.76666667E-01
      0.00000000E+00  6.50000000E+00  8.33333333E-01
      5.00000000E-01  6.50000000E+00  8.32500000E-01
      1.00000000E+00  6.50000000E+00  8.22500000E-01
      1.50000000E+00  6.50000000E+00  8.12500000E-01
      2.00000000E+00  6.50000000E+00  8.02500000E-01
      2.50000000E+00  6.50000000E+00  7.92500000E-01
      3.00000000E+00  6.50000000E+00  7.82500000E-01
      3.50000000E+00  6.50000000E+00  7.72500000E-01
      4.00000000E+00  6.50000000E+00  7.62500000E-01
      4.50000000E+00  6.50000000E+00  7.52500000E-01
      5.00000000E+00  6.50000000E+00  7.42500000E-01
      5.50000000E+00  6.50000000E+00  7.32500000E-01
      6.00000000E+00  6.50000000E+00  7.22500000E-01
      6.50000000E+00  6.50000000E+00  7.12500000E-01
      7.00000000E+00  6.50000000E+00  7.02500000E-01
      7.50000000E+00  6.50000000E+00  6.92500000E-01
      8.00000000E+00  6.50000000E+00  6.82500000E-01
      8.50000000E+00  6.50000000E+00  6.72500000E-01
      9.00000000E+00  6.50000000E+00  6.62500000E-01
      9.50000000E+00  6.50000000E+00  6.52500000E-01
      1.00000000E+01  6.50000000E+00  6.51666667E-01
      0.00000000E+00  6.00000000E+00  8.08333333E-01
      5.00000000E-01  6.00000000E+00  8.07500000E-01
      1.00000000E+00  6.00000000E+00  7.97500000E-01
      1.50000000E+00  6.00000000E+00  7.87500000E-01
      2.00000000E+00  6.00000000E+00  7.77500000E-01
      2.50000000E+00  6.00000000E+00  7.67500000E-01
      3.00000000E+00  6.00000000E+00  7.57500000E-01
      3.50000000E+00  6.00000000E+00  7.47500000E-01
      4.00000000E+00  6.00000000E+00  7.37500000E-01
      4.50000000E+00  6.00000000E+00  7.27500000E-01
      5.00000000E+00  6.00000000E+00  7.17500000E-01
      5.50000000E+00  6.00000000E+00  7.07500000E-01
      6.00000000E+00  6.00000000E+00  6.97500000E-01
      6.50000000E+00  6.00000000E+00  6.87500000E-01
      7.00000000E+00  6.00000000E+00  6.77500000E-01
      7.50000000E+00  6.00000000E+00  6.67500000E-01
      8.00000000E+00  6.00000000E+00  6.57500000E-01
[...]
POINT_DATA     7056
SCALARS pressure float
LOOKUP_TABLE default
 -0.13960717451352928     
 -0.13874621264885006     
 -0.13847773443299580     
 -0.13833171442612394     
 -0.13816926315941716     
 -0.13800621384098624     
 -0.13785177748823679     
 -0.13768822175807655     
 -0.13751615264266911     
 -0.13732934592731919     
 -0.13712024522996852     
 -0.13687344976068250     
 -0.13657641612769369     
 -0.13620851541943590     
 -0.13573877790312755     
 -0.13512657398598801     
 -0.13431152744469585     
 -0.13319007663181695     
 -0.13193738133580760     
 -0.12850950455883112     
 -0.12788211221769261     
 -0.13809816490030399     
 -0.13759997857726100     
 -0.13647888652825019     
 -0.13652493383826755     
 -0.13636199016948009     
 -0.13620628054692116     
 -0.13604020039112821     
 -0.13586177310424716     
 -0.13566170212424430     
 -0.13543891927356860     
 -0.13517826052038343     
 -0.13486949587920646     
 -0.13449351790752742     
 -0.13402473364293252     
 -0.13342729142110293     
 -0.13265153203082264     
 -0.13162833443753236     
 -0.13026188321208457     
 -0.12859604550374307     
 -0.12508482421832223     
 -0.12522593128990098     
 -0.13702918080736196     
 -0.13615508657705711     
 -0.13460347686953017     
 -0.13451383448471671     
 -0.13408884436862623     
 -0.13369433298361971     
 -0.13329131835167418     
 -0.13287200070285474     
 -0.13242609185281454     
 -0.13194113203774141     
 -0.13140077466423492     
 -0.13078263975583065     
 -0.13005886182802856     
 -0.12919149032617561     
 -0.12813486508875641     
 -0.12683334174892538     
 -0.12522496529882179     
 -0.12322415066858271     
 -0.12083264412018814     
 -0.11668217953618623     
 -0.11621493959719664     
 -0.13599417956855564     
 -0.13548764200487848     
 -0.13365575204711805     
 -0.13331292828619851     
 -0.13263658767156278     
 -0.13198505843405103     
 -0.13131395908536428     
 -0.13061453121880895     
 -0.12987254439491891     
 -0.12906969379385649     
 -0.12818381645583149     
 -0.12718732342410613     
 -0.12604848315637304     
 -0.12473027186655170     
 -0.12318338492262529     
 -0.12133935558436462     
 -0.11911962097663664     
 -0.11643219764027900     
 -0.11323637405064051     
 -0.10835027763360537     
 -0.10796260212419782     
 -0.13466392623344242     
 -0.13431508577905263     
 -0.13209943024505602     
 -0.13142775429922007     
 -0.13045616807894322     
 -0.12949585580885051     
 -0.12850887308383602     
 -0.12748138105441495     
 -0.12639782891898302     
 -0.12523975347321076     
 -0.12398666547138013     
 -0.12260675005156348     
 -0.12105585910305186     
 -0.11928047168590060     
 -0.11721758249124486     
 -0.11479173252461358     
 -0.11190836162566438     
 -0.10843988234282723     
 -0.10423772888554586     
  -9.8392604081142698E-002
  -9.7973824113207097E-002
 -0.13297845324992807     
 -0.13277129518051659     
 -0.13016606885029045     
 -0.12910566117906813     
 -0.12778264386309282     
 -0.12646021521376594     
 -0.12510898683341687     
 -0.12372024685846453     
 -0.12227670753963224     
 -0.12074908274359565     
 -0.11910122791900044     
 -0.11729052243838982     
 -0.11526562080696558     
 -0.11296188556434733     
 -0.11029588367558370     
 -0.10714925726625471     
 -0.10336798338845907     
  -9.8950369997609394E-002
  -9.3918603028199890E-002
  -8.7534693744234643E-002
  -8.7075010568981495E-002
 -0.13084237475218419     
 -0.13077551143110369     
 -0.12774475663593637     
 -0.12624095956931317     
 -0.12452575601316779     
 -0.12282096520269574     
 -0.12109492325311158     
 -0.11932271435392564     
 -0.11747565307237950     
 -0.11551933241084050     
 -0.11341051620349388     
 -0.11109263891613579     
 -0.10848979297865056     
 -0.10549314073406980     
 -0.10201138240398892     
  -9.8079765161947316E-002
  -9.3646345821653904E-002
  -8.8631909590517685E-002
  -8.2660474588770114E-002
  -7.5164346260203060E-002
  -7.4647851159044501E-002
 -0.12815858996151569     
 -0.12822900271889395     
 -0.12475604085211338     
 -0.12279070222280244     
 -0.12066822619310331     
 -0.11854386155034156     
 -0.11638461484668079     
 -0.11416175788185215     
 -0.11183730505173116     
 -0.10936034720979691     
 -0.10665821450959832     
 -0.10364372821923125     
 -0.10031768828428064     
  -9.6689183852254043E-002
  -9.2692692936765658E-002
  -8.8254608456033237E-002
  -8.3037528069999589E-002
  -7.6966292368064029E-002
  -7.0248994060706824E-002
  -6.2639775709028830E-002
  -6.2207270498369133E-002
 -0.12487622361728429     
 -0.12504138845995486     
 -0.12115460566953122     
 -0.11868090329422162     
 -0.11607881899250834     
 -0.11345848280460237     
 -0.11077781916087094     
 -0.10798736128612364     
 -0.10501634452270023     
 -0.10183331811002874     
  -9.8497152044027855E-002
  -9.4974814905873214E-002
  -9.1217323832027686E-002
  -8.7135092171899103E-002
  -8.2391627528892841E-002
  -7.7076501799359140E-002
  -7.1279731194865692E-002
  -6.4960748812673774E-002
  -5.8194965091361177E-002
  -4.9863377892756501E-002
  -4.9361199684807962E-002
 -0.12095539862076139     
 -0.12111339872735456     
 -0.11678283810380627     
 -0.11371044189104157     
 -0.11052139317019691     
 -0.10725883352832416     
 -0.10385042301242386     
 -0.10034431032718753     
  -9.6797987447567915E-002
  -9.3175112313942154E-002
  -8.9439274025622059E-002
  -8.5444160062799271E-002
  -8.0923356287183779E-002
  -7.6117861795072753E-002
  -7.0999667353199528E-002
  -6.5531484184756211E-002
  -5.9815815740387600E-002
  -5.3024139939867855E-002
  -4.5509894136588937E-002
  -3.7303779710416221E-002
  -3.6938876952385860E-002
 -0.11617907599937055     
 -0.11623327617653247     
 -0.11137640771705225     
 -0.10753750547913180     
 -0.10351717521639621     
  -9.9489819840309010E-002
  -9.5515468942422202E-002
  -9.1573585652084191E-002
  -8.7613562492971989E-002
  -8.3383897835317439E-002
  -7.8907393735718590E-002
  -7.4347057699107030E-002
  -6.9632703052506531E-002
  -6.4770099356633581E-002
  -5.9802053557252592E-002
  -5.4041495344926846E-002
  -4.7762780410044857E-002
  -4.0936449189222332E-002
  -3.3663955259350710E-002
  -2.5270091745929594E-002
  -2.4891542600196478E-002
 -0.11015115790969426     
 -0.11007214212128492     
 -0.10442483465214700     
  -9.9662491509854470E-002
  -9.5011352576292993E-002
  -9.0504039415623808E-002
  -8.6044691491487552E-002
  -8.1341464685771220E-002
  -7.6683219358549479E-002
  -7.2083341350915750E-002
  -6.7497256753267842E-002
  -6.2977004342058426E-002
  -5.8408548375851209E-002
  -5.3271199897202977E-002
  -4.7894247401646356E-002
  -4.2193593419072334E-002
  -3.6317057162299653E-002
  -2.9629674695702143E-002
  -2.2224884194769399E-002
  -1.4146046095098124E-002
  -1.3942672558696054E-002
 -0.10221256539117719     
 -0.10200155395478436     
  -9.5749990517665168E-002
  -9.0394953516163695E-002
  -8.5144548594847810E-002
  -7.9760656906642011E-002
  -7.4612487488285958E-002
  -6.9671747450591653E-002
  -6.4971475559047254E-002
  -6.0533272914516545E-002
  -5.5869005305647222E-002
  -5.1089725649446985E-002
  -4.6259253757693117E-002
  -4.1329383661095134E-002
  -3.6412799223758764E-002
  -3.1017675593296361E-002
  -2.5187146395273741E-002
  -1.8850377030140628E-002
  -1.1671114653961260E-002
  -3.7022265297289151E-003
  -3.7375782256296405E-003
  -9.2606082697180930E-002
  -9.2286269437528656E-002
  -8.5516178345896032E-002
  -7.9135518971631222E-002
  -7.3146507229822896E-002
  -6.7545372878659138E-002
  -6.2431157242995187E-002
  -5.7587435989013350E-002
  -5.2676918997778294E-002
  -4.7952654317547673E-002
  -4.3322797113243050E-002
  -3.8847461399897601E-002
  -3.4514338531533441E-002
  -2.9897505884124868E-002
  -2.5112394744481313E-002
  -2.0175020869645656E-002
  -1.4999232217089207E-002
  -8.9244873922496876E-003
   1.1294460908619356E-004
   3.8385347995476975E-004
   3.1521262329698395E-004
  -8.0791735800715123E-002
  -8.0435044830985472E-002
  -7.2883918704194389E-002
  -6.6213436231234907E-002
  -6.0333865736213882E-002
  -5.4600183511665581E-002
  -4.9203511041146640E-002
  -4.4170075367946107E-002
  -3.9552489129196802E-002
  -3.5357687260049959E-002
  -3.1051372806667282E-002
  -2.6798188982294208E-002
  -2.2697987288057605E-002
  -1.8694393107452807E-002
  -1.4520314608874652E-002
  -1.0173883133752623E-002
  -5.9951501005368248E-003
   1.2986653335370906E-004
   5.9335462417513609E-004
   9.9411815170285470E-004
   1.0580444570495898E-003
  -6.6943838752868828E-002
  -6.6599871412929890E-002
  -5.9187431950821864E-002
  -5.2197941000809045E-002
  -4.5920005910147742E-002
  -4.0330852461672027E-002
  -3.5440100179315683E-002
  -3.0699002625146861E-002
  -2.6435356294279948E-002
  -2.2517798215422987E-002
  -1.8764850053666727E-002
  -1.4920348264379756E-002
  -1.1486585854496929E-002
  -8.3218789140244009E-003
  -4.4092706118551333E-003
   1.0196483246286119E-004
   3.2714602677862142E-004
   6.3566803125531261E-004
   1.2527908302693172E-003
   1.5961524233077742E-003
   1.4915031148125316E-003
  -5.1769590080185515E-002
  -5.1426612791953853E-002
  -4.3418590761644532E-002
  -3.6772695613536598E-002
  -3.0984163354796208E-002
  -2.5783606327097384E-002
  -2.1147425615443055E-002
  -1.6714881263760882E-002
  -1.3346436822809088E-002
  -1.0385721899738532E-002
  -7.3138371472342978E-003
  -2.2141005506434662E-003
   1.1630573640385018E-004
   2.9049061054778157E-004
   4.6201691158920943E-004
   6.8121361668692251E-004
   1.0204067509880720E-003
   1.4140151545456059E-003
   1.9852285625435611E-003
   2.1161343382038720E-003
   1.8450952351435359E-003
  -3.5039938290108229E-002
  -3.4766733279241603E-002
  -2.6541063423934488E-002
  -2.0177224091025819E-002
  -1.5465746449097045E-002
  -1.0886735376410266E-002
  -7.2501227093939727E-003
   2.2339869855646054E-005
   1.8844113001146182E-004
   3.5458961642766064E-004
   5.0853215397105868E-004
   6.6039504390118145E-004
   8.4840048770117829E-004
   1.1111962793234297E-003
   1.3737295867651844E-003
   1.6371338575028043E-003
   1.9125907836457070E-003
   2.2293735853835357E-003
   2.7743484240547746E-003
   2.7182564420806200E-003
   2.2521341574267060E-003
  -1.7056820541168902E-002
  -1.6728733021676080E-002
  -6.0489470960462359E-003
   1.8019524729207556E-004
   4.6383121321980287E-004
   7.0501094272871188E-004
   9.1057421212790751E-004
   1.1048157964000690E-003
   1.3449248457466630E-003
   1.6124734455494638E-003
   1.8502640970747310E-003
   2.0771666010055722E-003
   2.2825453630519847E-003
   2.4727475792220206E-003
   2.6677298107186014E-003
   2.8806560889154385E-003
   3.1294214412765971E-003
   3.4352250420515342E-003
   3.9757072112649762E-003
   3.5886366629655280E-003
   2.8159843408035500E-003
   1.0426722586407199E-003
   1.1188110682398892E-003
   1.8545986183176155E-003
   2.4761369036665616E-003
   2.8429205470493304E-003
   3.0577290101176102E-003
   3.2103692737923948E-003
   3.3173420283055285E-003
   3.3847934027767626E-003
   3.4339928446501964E-003
   3.4874887328763668E-003
   3.5504765641510201E-003
   3.6251673557542215E-003
   3.7152311512381035E-003
   3.8248671983259898E-003
   3.9587880399827961E-003
   4.1270252097888776E-003
   4.3468602091596437E-003
   4.7104303825238579E-003
   4.7430389348595524E-003
   3.8623551073686266E-003
   1.5982147358131829E-003
   1.9508705893598224E-003
   3.1757213932239480E-003
   4.4330377085506070E-003
   4.8786711037307681E-003
   4.8229394109090030E-003
   4.7432170055049881E-003
   4.6209956555128880E-003
   4.4902019466291727E-003
   4.3749739380563486E-003
   4.2854425335926037E-003
   4.2242124941466236E-003
   4.1909663992791939E-003
   4.1855653709019893E-003
   4.2089701572361532E-003
   4.2625726578436728E-003
   4.3497835359634337E-003
   4.4794757767528375E-003
   4.6882927883108031E-003
   4.9187423676147410E-003
   4.9857599714072439E-003
 -0.13379899236374151     
 -0.13299799872595156     
 -0.13272961380808659     
 -0.13258408116901471     
 -0.13242194265011403     
 -0.13225920854595349     
 -0.13210505520155921     
 -0.13194177807233595     
 -0.13176996555996234     
 -0.13158337457476743     
 -0.13137442050685352     
 -0.13112768029966976     
 -0.13083053866605424     
 -0.13046226798248789     
 -0.12999178766436745     
 -0.12937835138392434     
 -0.12856147035617002     
 -0.12743747569605335     
 -0.12618014018740117     
 -0.12274467899688594     
 -0.12221992990005734     
 -0.13235722961258800     
 -0.13197359426374436     
 -0.13085060681841487     
 -0.13089761179808374     
 -0.13073535248929671     
 -0.13058025452559086     
 -0.13041470439225658     
 -0.13023667967931293     
 -0.13003685671965690     
 -0.12981408689564650     
 -0.12955317543794834     
 -0.12924379081135601     
 -0.12886672068783228     
 -0.12839627823027441     
 -0.12779652252224399     
 -0.12701763423524162     
 -0.12599016658055748     
 -0.12461773221432511     
 -0.12294249122731202     
 -0.11941977733906903     
 -0.11965836947651261     
 -0.13129185785254383     
 -0.13053400853790373     
 -0.12898122037067836     
 -0.12889283482363778     
 -0.12846866680131319     
 -0.12807463593775173     
 -0.12767185592902786     
 -0.12725245443604716     
 -0.12680607153924570     
 -0.12632018162382885     
 -0.12577837513597437     
 -0.12515818271229365     
 -0.12443159017137306     
 -0.12356037963705441     
 -0.12249842486466039     
 -0.12118939578859489     
 -0.11957119016343590     
 -0.11755959326151727     
 -0.11515571229141178     
 -0.11099507861318984     
 -0.11062520804765433     
 -0.13025834205267073     
 -0.12986904234471250     
 -0.12803616200960538     
 -0.12769452308916812     
 -0.12701863383807516     
 -0.12636687389816750     
 -0.12569498509148200     
 -0.12499415094178210     
 -0.12425010352526571     
 -0.12344444281559171     
 -0.12255480175750487     
 -0.12155324601080121     
 -0.12040759221340928     
 -0.11908073612314989     
 -0.11752426310480085     
 -0.11566994668208687     
 -0.11343907170719543     
 -0.11074001371595665     
 -0.10753184515780319     
 -0.10264056249248925     
 -0.10234593819383199     
 -0.12892964208362856     
 -0.12869771464475865     
 -0.12648095253143540     
 -0.12580951425417308     
 -0.12483706691327098     
 -0.12387497099819847     
 -0.12288540782701374     
 -0.12185435031992635     
 -0.12076597813522304     
 -0.11960150167056002     
 -0.11834048225480473     
 -0.11695190426919461     
 -0.11539180391862097     
 -0.11360646757100512     
 -0.11153288157605795     
 -0.10909586301376246     
 -0.10620153146371460     
 -0.10272421818902079     
  -9.8514123956074548E-002
  -9.2654353705592774E-002
  -9.2319848510182406E-002
 -0.12724489045743495     
 -0.12715237640560126     
 -0.12454570336647945     
 -0.12348358143465357     
 -0.12215763044429415     
 -0.12083081870032984     
 -0.11947356745659847     
 -0.11807720370629901     
 -0.11662536732888548     
 -0.11508913891421754     
 -0.11343217517907224     
 -0.11161177195706749     
 -0.10957665069747290     
 -0.10726249711324444     
 -0.10458662823861160     
 -0.10143223369811313     
  -9.7641619044697398E-002
  -9.3202932515248874E-002
  -8.8147406134755218E-002
  -8.1749862487478078E-002
  -8.1361746440371793E-002
 -0.12510697264963597     
 -0.12515126112788424     
 -0.12211806525074237     
 -0.12060914981275697     
 -0.11888694296668890     
 -0.11717366293783291     
 -0.11543897984730027     
 -0.11365790124168251     
 -0.11180161131005205     
 -0.10983571146054824     
 -0.10771716041162903     
 -0.10538977716565390     
 -0.10277857886057869     
  -9.9774981585683903E-002
  -9.6279527006108076E-002
  -9.2327488628810003E-002
  -8.7872226467033451E-002
  -8.2836221717248998E-002
  -7.6856447218009077E-002
  -6.9339864093181505E-002
  -6.8879514716536458E-002
 -0.12241687487263146     
 -0.12259448247465241     
 -0.11911502682387877     
 -0.11713995843058748     
 -0.11500830924867629     
 -0.11287453925109336     
 -0.11070569820594012     
 -0.10847321948233460     
 -0.10613944264480171     
 -0.10365398717875461     
 -0.10094496808841655     
  -9.7922067846233030E-002
  -9.4578418244106441E-002
  -9.0930489160802472E-002
  -8.6913137691407696E-002
  -8.2455826807962929E-002
  -7.7232067891246176E-002
  -7.1134822402314724E-002
  -6.4389676415253200E-002
  -5.6756065485813550E-002
  -5.6358452850874007E-002
 -0.11912001418215888     
 -0.11938793946891775     
 -0.11549187184475893     
 -0.11300745669290423     
 -0.11039525931232400     
 -0.10776501170846450     
 -0.10507520340193775     
 -0.10227719512268403     
  -9.9299803893268909E-002
  -9.6103376717130110E-002
  -9.2748957740321089E-002
  -8.9207738936899011E-002
  -8.5430349988603202E-002
  -8.1332827273526767E-002
  -7.6581230814917842E-002
  -7.1242577380437044E-002
  -6.5421384467088395E-002
  -5.9075393614177983E-002
  -5.2293863660995803E-002
  -4.3945796215891175E-002
  -4.3469234387888481E-002
 -0.11518055788448645     
 -0.11543621917436253     
 -0.11109527616034094     
 -0.10801178641623098     
 -0.10481341766344895     
 -0.10154382901678564     
  -9.8127967210610456E-002
  -9.4604680500631880E-002
  -9.1039850785879881E-002
  -8.7397781586456808E-002
  -8.3643844188264593E-002
  -7.9639811552154771E-002
  -7.5104999445638129E-002
  -7.0277838225540817E-002
  -6.5138047560740417E-002
  -5.9646258763301943E-002
  -5.3908089083302135E-002
  -4.7104184445785284E-002
  -3.9570584207307198E-002
  -3.1349673866961060E-002
  -3.0995989998957422E-002
 -0.11038411933791725     
 -0.11052836872395791     
 -0.10566247881206334     
 -0.10181581164514968     
  -9.7786970967870104E-002
  -9.3740756195514488E-002
  -8.9747053333651225E-002
  -8.5785379243702428E-002
  -8.1810117068988372E-002
  -7.7575736338576409E-002
  -7.3078272330861824E-002
  -6.8497916720328761E-002
  -6.3763966152026522E-002
  -5.8879650318644117E-002
  -5.3892646903381969E-002
  -4.8122318438840121E-002
  -4.1827170657471033E-002
  -3.4984783394808386E-002
  -2.7699575813222514E-002
  -1.9298046700864779E-002
  -1.8925959191514647E-002
 -0.10433690595917977     
 -0.10433963722544672     
  -9.8687334259117257E-002
  -9.3904807543410296E-002
  -8.9233061988821916E-002
  -8.4705312433190030E-002
  -8.0234763331945680E-002
  -7.5519824264314112E-002
  -7.0841293974747685E-002
  -6.6222449644721057E-002
  -6.1616615851410518E-002
  -5.7076874825085826E-002
  -5.2501479709348445E-002
  -4.7348715824659521E-002
  -4.1957634724215848E-002
  -3.6243912238420391E-002
  -3.0352649454351822E-002
  -2.3657524818277546E-002
  -1.6244125164406667E-002
  -8.1612190073021840E-003
  -7.9599880553184385E-003
  -9.6373806384723745E-002
  -9.6234253899926750E-002
  -8.9963447936138877E-002
  -8.4586137816139342E-002
  -7.9327466358916063E-002
  -7.3925643321662321E-002
  -6.8757453105770833E-002
  -6.3797826932870380E-002
  -5.9077378210398303E-002
  -5.4621282967711272E-002
  -4.9951301130386982E-002
  -4.5159461722513859E-002
  -4.0317626737622909E-002
  -3.5376291977855717E-002
  -3.0448261891212396E-002
  -2.5047701503790973E-002
  -1.9209943838890305E-002
  -1.2863963362689499E-002
  -5.6832700745176618E-003
   2.2490210356040613E-003
   2.2176869846770881E-003
  -8.6730170008559745E-002
  -8.6464792546020824E-002
  -7.9687617769929206E-002
  -7.3288178653471162E-002
  -6.7278765908492952E-002
  -6.1657194287820086E-002
  -5.6522851342714807E-002
  -5.1672155681833032E-002
  -4.6748728613516213E-002
  -4.2013203985589914E-002
  -3.7372748642432473E-002
  -3.2887695031263722E-002
  -2.8548534417382448E-002
  -2.3925480662142951E-002
  -1.9135312775649633E-002
  -1.4193057885268940E-002
  -9.0125303564784348E-003
  -2.9367424212797867E-003
   5.9821364087740032E-003
   6.4319161172944842E-003
   6.3376939790479305E-003
  -7.4888434976379856E-002
  -7.4574170694847203E-002
  -6.7004964761850361E-002