# vtk DataFile Version 2.0
3D Unstructured Grid of Linear Triangles
ASCII
DATASET UNSTRUCTURED_GRID
FIELD FieldData  1
TIME 1 1 double
        1807.59715
POINTS     7056 float
      0.00000000E+00  1.00000000E+01  1.00000000E+00
      5.00000000E-01  1.00000000E+01  9.93333333E-01
      1.00000000E+00  1.00000000E+01  9.83333333E-01
      1.50000000E+00  1.00000000E+01  9.73333333E-01
      2.00000000E+00  1.00000000E+01  9.63333333E-01
      2.50000000E+00  1.00000000E+01  9.53333333E-01
      3.00000000E+00  1.00000000E+01  9.43333333E-01
      3.50000000E+00  1.00000000E+01  9.33333333E-01
      4.00000000E+00  1.00000000E+01  9.23333333E-01
      4.50000000E+00  1.00000000E+01  9.13333333E-01
      5.00000000E+00  1.00000000E+01  9.03333333E-01
      5.50000000E+00  1.00000000E+01  8.93333333E-01
      6.00000000E+00  1.00000000E+01  8.83333333E-01
      6.50000000E+00  1.00000000E+01  8.73333333E-01
      7.00000000E+00  1.00000000E+01  8.63333333E-01
      7.50000000E+00  1.00000000E+01  8.53333333E-01
      8.00000000E+00  1.00000000E+01  8.43333333E-01
      8.50000000E+00  1.00000000E+01  8.33333333E-01
      9.00000000E+00  1.00000000E+01  8.23333333E-01
      9.50000000E+00  1.00000000E+01  8.13333333E-01
      1.00000000E+01  1.00000000E+01  8.10000000E-01
      0.00000000E+00  9.50000000E+00  9.83333333E-01
      5.00000000E-01  9.50000000E+00  9.82500000E-01
      1.00000000E+00  9.50000000E+00  9.72500000E-01
      1.50000000E+00  9.50000000E+00  9.62500000E-01
      2.00000000E+00  9.50000000E+00  9.52500000E-01
      2.50000000E+00  9.50000000E+00  9.42500000E-01
      3.00000000E+00  9.50000000E+00  9.32500000E-01
      3.50000000E+00  9.50000000E+00  9.22500000E-01
      4.00000000E+00  9.50000000E+00  9.12500000E-01
      4.50000000E+00  9.50000000E+00  9.02500000E-01
      5.00000000E+00  9.50000000E+00  8.92500000E-01
      5.50000000E+00  9.50000000E+00  8.82500000E-01
      6.00000000E+00  9.50000000E+00  8.72500000E-01
      6.50000000E+00  9.50000000E+00  8.62500000E-01
      7.00000000E+00  9.50000000E+00  8.52500000E-01
      7.50000000E+00  9.50000000E+00  8.42500000E-01
      8.00000000E+00  9.50000000E+00  8.32500000E-01
      8.50000000E+00  9.50000000E+00  8.22500000E-01
      9.00000000E+00  9.50000000E+00  8.12500000E-01
      9.50000000E+00  9.50000000E+00  8.02500000E-01
      1.00000000E+01  9.50000000E+00  8.01666667E-01
      0.00000000E+00  9.00000000E+00  9.58333333E-01
      5.00000000E-01  9.00000000E+00  9.57500000E-01
      1.00000000E+00  9.00000000E+00  9.47500000E-01
      1.50000000E+00  9.00000000E+00  9.37500000E-01
      2.00000000E+00  9.00000000E+00  9.27500000E-01
      2.50000000E+00  9.00000000E+00  9.17500000E-01
      3.00000000E+00  9.00000000E+00  9.07500000E-01
      3.50000000E+00  9.00000000E+00  8.97500000E-01
      4.00000000E+00  9.00000000E+00  8.87500000E-01
      4.50000000E+00  9.00000000E+00  8.77500000E-01
      5.00000000E+00  9.00000000E+00  8.67500000E-01
      5.50000000E+00  9.00000000E+00  8.57500000E-01
      6.00000000E+00  9.00000000E+00  8.47500000E-01
      6.50000000E+00  9.00000000E+00  8.37500000E-01
      7.00000000E+00  9.00000000E+00  8.27500000E-01
      7.50000000E+00  9.00000000E+00  8.17500000E-01
      8.00000000E+00  9.00000000E+00  8.07500000E-01
      8.50000000E+00  9.00000000E+00  7.97500000E-01
      9.00000000E+00  9.00000000E+00  7.87500000E-01
      9.50000000E+00  9.00000000E+00  7.77500000E-01
      1.00000000E+01  9.00000000E+00  7.76666667E-01
      0.00000000E+00  8.50000000E+00  9.33333333E-01
      5.00000000E-01  8.50000000E+00  9.32500000E-01
      1.00000000E+00  8.50000000E+00  9.22500000E-01
      1.50000000E+00  8.50000000E+00  9.12500000E-01
      2.00000000E+00  8.50000000E+00  9.02500000E-01
      2.50000000E+00  8.50000000E+00  8.92500000E-01
      3.00000000E+00  8.50000000E+00  8.82500000E-01
      3.50000000E+00  8.50000000E+00  8.72500000E-01
      4.00000000E+00  8.50000000E+00  8.62500000E-01
      4.50000000E+00  8.50000000E+00  8.52500000E-01
      5.00000000E+00  8.50000000E+00  8.42500000E-01
      5.50000000E+00  8.50000000E+00  8.32500000E-01
      6.00000000E+00  8.50000000E+00  8.22500000E-01
      6.50000000E+00  8.50000000E+00  8.12500000E-01
      7.00000000E+00  8.50000000E+00  8.02500000E-01
      7.50000000E+00  8.50000000E+00  7.92500000E-01
      8.00000000E+00  8.50000000E+00  7.82500000E-01
      8.50000000E+00  8.50000000E+00  7.72500000E-01
      9.00000000E+00  8.50000000E+00  7.62500000E-01
      9.50000000E+00  8.50000000E+00  7.52500000E-01
      1.00000000E+01  8.50000000E+00  7.51666667E-01
      0.00000000E+00  8.00000000E+00  9.08333333E-01
      5.00000000E-01  8.00000000E+00  9.07500000E-01
      1.00000000E+00  8.00000000E+00  8.97500000E-01
      1.50000000E+00  8.00000000E+00  8.87500000E-01
      2.00000000E+00  8.00000000E+00  8.77500000E-01
      2.50000000E+00  8.00000000E+00  8.67500000E-01
      3.00000000E+00  8.00000000E+00  8.57500000E-01
      3.50000000E+00  8.00000000E+00  8.47500000E-01
      4.00000000E+00  8.00000000E+00  8.37500000E-01
      4.50000000E+00  8.00000000E+00  8.27500000E-01
      5.00000000E+00  8.00000000E+00  8.17500000E-01
      5.50000000E+00  8.00000000E+00  8.07500000E-01
      6.00000000E+00  8.00000000E+00  7.97500000E-01
      6.50000000E+00  8.00000000E+00  7.87500000E-01
      7.00000000E+00  8.00000000E+00  7.77500000E-01
      7.50000000E+00  8.00000000E+00  7.67500000E-01
      8.00000000E+00  8.00000000E+00  7.57500000E-01
      8.50000000E+00  8.00000000E+00  7.47500000E-01
      9.00000000E+00  8.00000000E+00  7.37500000E-01
      9.50000000E+00  8.00000000E+00  7.27500000E-01
      1.00000000E+01  8.00000000E+00  7.26666667E-01
      0.00000000E+00  7.50000000E+00  8.83333333E-01
      5.00000000E-01  7.50000000E+00  8.82500000E-01
      1.00000000E+00  7.50000000E+00  8.72500000E-01
      1.50000000E+00  7.50000000E+00  8.62500000E-01
      2.00000000E+00  7.50000000E+00  8.52500000E-01
      2.50000000E+00  7.50000000E+00  8.42500000E-01
      3.00000000E+00  7.50000000E+00  8.32500000E-01
      3.50000000E+00  7.50000000E+00  8.22500000E-01
      4.00000000E+00  7.50000000E+00  8.12500000E-01
      4.50000000E+00  7.50000000E+00  8.02500000E-01
      5.00000000E+00  7.50000000E+00  7.92500000E-01
      5.50000000E+00  7.50000000E+00  7.82500000E-01
      6.00000000E+00  7.50000000E+00  7.72500000E-01
      6.50000000E+00  7.50000000E+00  7.62500000E-01
      7.00000000E+00  7.50000000E+00  7.52500000E-01
      7.50000000E+00  7.50000000E+00  7.42500000E-01
      8.00000000E+00  7.50000000E+00  7.32500000E-01
      8.50000000E+00  7.50000000E+00  7.22500000E-01
      9.00000000E+00  7.50000000E+00  7.12500000E-01
      9.50000000E+00  7.50000000E+00  7.02500000E-01
      1.00000000E+01  7.50000000E+00  7.01666667E-01
      0.00000000E+00  7.00000000E+00  8.58333333E-01
      5.00000000E-01  7.00000000E+00  8.57500000E-01
      1.00000000E+00  7.00000000E+00  8.47500000E-01
      1.50000000E+00  7.00000000E+00  8.37500000E-01
      2.00000000E+00  7.00000000E+00  8.27500000E-01
      2.50000000E+00  7.00000000E+00  8.17500000E-01
      3.00000000E+00  7.00000000E+00  8.07500000E-01
      3.50000000E+00  7.00000000E+00  7.97500000E-01
      4.00000000E+00  7.00000000E+00  7.87500000E-01
      4.50000000E+00  7.00000000E+00  7.77500000E-01
      5.00000000E+00  7.00000000E+00  7.67500000E-01
      5.50000000E+00  7.00000000E+00  7.57500000E-01
      6.00000000E+00  7.00000000E+00  7.47500000E-01
      6.50000000E+00  7.00000000E+00  7.37500000E-01
      7.00000000E+00  7.00000000E+00  7.27500000E-01
      7.50000000E+00  7.00000000E+00  7.17500000E-01
      8.00000000E+00  7.00000000E+00  7.07500000E-01
      8.50000000E+00  7.00000000E+00  6.97500000E-01
      9.00000000E+00  7.00000000E+00  6.87500000E-01
      9.50000000E+00  7.00000000E+00  6.77500000E-01
      1.00000000E+01  7.00000000E+00  6.76666667E-01
      0.00000000E+00  6.50000000E+00  8.33333333E-01
      5.00000000E-01  6.50000000E+00  8.32500000E-01
      1.00000000E+00  6.50000000E+00  8.22500000E-01
      1.50000000E+00  6.50000000E+00  8.12500000E-01
      2.00000000E+00  6.50000000E+00  8.02500000E-01
      2.50000000E+00  6.50000000E+00  7.92500000E-01
      3.00000000E+00  6.50000000E+00  7.82500000E-01
      3.50000000E+00  6.50000000E+00  7.72500000E-01
      4.00000000E+00  6.50000000E+00  7.62500000E-01
      4.50000000E+00  6.50000000E+00  7.52500000E-01
      5.00000000E+00  6.50000000E+00  7.42500000E-01
      5.50000000E+00  6.50000000E+00  7.32500000E-01
      6.00000000E+00  6.50000000E+00  7.22500000E-01
      6.50000000E+00  6.50000000E+00  7.12500000E-01
      7.00000000E+00  6.50000000E+00  7.02500000E-01
      7.50000000E+00  6.50000000E+00  6.92500000E-01
      8.00000000E+00  6.50000000E+00  6.82500000E-01
      8.50000000E+00  6.50000000E+00  6.72500000E-01
      9.00000000E+00  6.50000000E+00  6.62500000E-01
      9.50000000E+00  6.50000000E+00  6.52500000E-01
      1.00000000E+01  6.50000000E+00  6.51666667E-01
      0.00000000E+00  6.00000000E+00  8.08333333E-01
      5.00000000E-01  6.00000000E+00  8.07500000E-01
      1.00000000E+00  6.00000000E+00  7.97500000E-01
      1.50000000E+00  6.00000000E+00  7.87500000E-01
      2.00000000E+00  6.00000000E+00  7.77500000E-01
      2.50000000E+00  6.00000000E+00  7.67500000E-01
      3.00000000E+00  6.00000000E+00  7.57500000E-01
      3.50000000E+00  6.00000000E+00  7.47500000E-01
      4.00000000E+00  6.00000000E+00  7.37500000E-01
      4.50000000E+00  6.00000000E+00  7.27500000E-01
      5.00000000E+00  6.00000000E+00  7.17500000E-01
      5.50000000E+00  6.00000000E+00  7.07500000E-01
      6.00000000E+00  6.00000000E+00  6.97500000E-01
      6.50000000E+00  6.00000000E+00  6.87500000E-01
      7.00000000E+00  6.00000000E+00  6.77500000E-01
      7.50000000E+00  6.00000000E+00  6.67500000E-01
      8.00000000E+00  6.00000000E+00  6.57500000E-01
[...]
POINT_DATA     7056
SCALARS pressure float
LOOKUP_TABLE default
 -0.14615678629106993     
 -0.14533873594085403     
 -0.14508499056532603     
 -0.14496746218243847     
 -0.14482049459981244     
 -0.14469513870194972     
 -0.14456686599711893     
 -0.14441278591180487     
 -0.14426936026159098     
 -0.14409758387617475     
 -0.14391137737404275     
 -0.14368654880218237     
 -0.14339919685040800     
 -0.14305300324020695     
 -0.14259475775040273     
 -0.14198881099466804     
 -0.14117849094160356     
 -0.14005627797811890     
 -0.13882374228389982     
 -0.13533183054705597     
 -0.13457587756256587     
 -0.14471284896449496     
 -0.14423276053405043     
 -0.14310910698943380     
 -0.14320418302627930     
 -0.14307482318641321     
 -0.14294373188922038     
 -0.14280367724819673     
 -0.14265126947656467     
 -0.14248353334065236     
 -0.14227882015540833     
 -0.14204412513013753     
 -0.14175043263920639     
 -0.14138810549967698     
 -0.14092642369915453     
 -0.14032379760088370     
 -0.13953943387981316     
 -0.13850234408741410     
 -0.13711108695628144     
 -0.13541560898296473     
 -0.13180084987357618     
 -0.13183673770107107     
 -0.14373647603056605     
 -0.14287133155441298     
 -0.14135168009254193     
 -0.14133993287210878     
 -0.14095562209510157     
 -0.14060905185908987     
 -0.14024649025760569     
 -0.13986676583430155     
 -0.13944823439692097     
 -0.13898388278942087     
 -0.13845418030763737     
 -0.13783835303870090     
 -0.13710551597842083     
 -0.13622147257397343     
 -0.13512946388499514     
 -0.13376532872847277     
 -0.13206026896451198     
 -0.12993902879926270     
 -0.12744606471935566     
 -0.12318132926381993     
 -0.12264670790738107     
 -0.14284101248039074     
 -0.14235314676672892     
 -0.14056893809906565     
 -0.14032488982388652     
 -0.13970515295644487     
 -0.13910759675830453     
 -0.13847586245064022     
 -0.13780741356393020     
 -0.13707944310482673     
 -0.13627981352429905     
 -0.13537836561292516     
 -0.13434858546794884     
 -0.13314726829721021     
 -0.13173164011622823     
 -0.13005422586899917     
 -0.12806889192271831     
 -0.12570371079966666     
 -0.12288222685499585     
 -0.11959764422176213     
 -0.11467168517680086     
 -0.11424622402201078     
 -0.14165198376417878     
 -0.14131919153385161     
 -0.13916753429097523     
 -0.13859308526110081     
 -0.13768074680496883     
 -0.13676719106302768     
 -0.13580657417085307     
 -0.13478228592176386     
 -0.13368022776332103     
 -0.13247674821915276     
 -0.13113902668666394     
 -0.12964262409281363     
 -0.12795241649237399     
 -0.12602511236544750     
 -0.12379993590164516     
 -0.12120968110080721     
 -0.11818388967478753     
 -0.11463632249431634     
 -0.11049621230507539     
 -0.10466203847599213     
 -0.10419556598661228     
 -0.14012671359304704     
 -0.13988871014243212     
 -0.13734837732421021     
 -0.13638094762377523     
 -0.13509867025288932     
 -0.13379169051255937     
 -0.13242364810059204     
 -0.13097742923887201     
 -0.12944052996910244     
 -0.12779192519597449     
 -0.12600655159134777     
 -0.12404198654489304     
 -0.12184781219352724     
 -0.11937062518819300     
 -0.11654261687374877     
 -0.11328491435143530     
 -0.10948204575218208     
 -0.10495188459663642     
  -9.9734331057890896E-002
  -9.3191947806027117E-002
  -9.2687683418444619E-002
 -0.13810260773751551     
 -0.13794412638660647     
 -0.13497931294503390     
 -0.13352937210573501     
 -0.13180264195239880     
 -0.13003849240000201     
 -0.12821855447220973     
 -0.12633245243792526     
 -0.12435267924656808     
 -0.12224675800337062     
 -0.11997348022637315     
 -0.11748685732572688     
 -0.11472768579215649     
 -0.11162031599390412     
 -0.10804633882683588     
 -0.10387006910642581     
  -9.9158993939178861E-002
  -9.3899349938467880E-002
  -8.8036243217203783E-002
  -8.0536953031806205E-002
  -7.9962589335589390E-002
 -0.13542565182334501     
 -0.13535792271113317     
 -0.13190646792517755     
 -0.12990218121245109     
 -0.12769284724089069     
 -0.12546369599583021     
 -0.12318069229897130     
 -0.12081600372149262     
 -0.11833911432110883     
 -0.11571078480535792     
 -0.11287821253142950     
 -0.10976418133331527     
 -0.10625169530407420     
 -0.10230187216645299     
  -9.7973051124376792E-002
  -9.3217763223523195E-002
  -8.7973068477256139E-002
  -8.1802860809386382E-002
  -7.4851852344498149E-002
  -6.6896879469171777E-002
  -6.6351836296689087E-002
 -0.13192818086849270     
 -0.13195230098507565     
 -0.12799879039016390     
 -0.12543619500760869     
 -0.12272028611248394     
 -0.11996975956928935     
 -0.11715401261002172     
 -0.11423810376440019     
 -0.11117162238595320     
 -0.10787191862656051     
 -0.10425692141761748     
 -0.10039282976313875     
  -9.6273432446326274E-002
  -9.1858894434925467E-002
  -8.7061174016406770E-002
  -8.1478578659142389E-002
  -7.5330242746428314E-002
  -6.8653254320973120E-002
  -6.1560636812606255E-002
  -5.3283844024718328E-002
  -5.2767437705884337E-002
 -0.12754814405954379     
 -0.12760604723193830     
 -0.12317307764770202     
 -0.11998438699639292     
 -0.11667676676191417     
 -0.11331510191148081     
 -0.10984384084816370     
 -0.10617062115190269     
 -0.10230925134002010     
  -9.8341352354864367E-002
  -9.4235992689711778E-002
  -8.9968955068559356E-002
  -8.5361890506354315E-002
  -8.0161709885051419E-002
  -7.4628981038378547E-002
  -6.8712184923341899E-002
  -6.2476476439749698E-002
  -5.5615978671265033E-002
  -4.7860045374746057E-002
  -3.9379541498689954E-002
  -3.8919690661304455E-002
 -0.12216187383284223     
 -0.12214063112463804     
 -0.11718132165612362     
 -0.11325918523288490     
 -0.10920119716680829     
 -0.10497253219097326     
 -0.10068689132624999     
  -9.6400202903095741E-002
  -9.2102402477116596E-002
  -8.7740389433782359E-002
  -8.3005096402621145E-002
  -7.8025250983347449E-002
  -7.2881090956197908E-002
  -6.7513756773490835E-002
  -6.2008033588999457E-002
  -5.6023697960793470E-002
  -4.9322654467886487E-002
  -4.2073243912963340E-002
  -3.4467070107521515E-002
  -2.5999283119560981E-002
  -2.5626200064609878E-002
 -0.11542002657517672     
 -0.11526183755467183     
 -0.10961915347150591     
 -0.10466890050412307     
  -9.9725781315194897E-002
  -9.4885546697943926E-002
  -9.0158300038943803E-002
  -8.5380400701823553E-002
  -8.0343358787721267E-002
  -7.5333957087559897E-002
  -7.0302890401888071E-002
  -6.5269814406924045E-002
  -6.0286834417456955E-002
  -5.4801822518717201E-002
  -4.8955958302098965E-002
  -4.2739574087650112E-002
  -3.6289350056103731E-002
  -2.8983064908056223E-002
  -2.0937654289043216E-002
  -1.3065091710518284E-002
  -1.2923766282064954E-002
 -0.10663956659255946     
 -0.10635227789712363     
  -9.9858537726494917E-002
  -9.4195669224117221E-002
  -8.8756718198925860E-002
  -8.3226449104718978E-002
  -7.7726069527593228E-002
  -7.2402437841421627E-002
  -6.7230450001092096E-002
  -6.2296169015717502E-002
  -5.7374811530142719E-002
  -5.2161225902435132E-002
  -4.6863333977417106E-002
  -4.1441187313625887E-002
  -3.6006647207073222E-002
  -2.9928931549548562E-002
  -2.3357006362698669E-002
  -1.5688661385236630E-002
  -4.8711944769720865E-003
   3.6105884476960554E-004
   2.6324177297018037E-004
  -9.5659160850583597E-002
  -9.5280566745308160E-002
  -8.8386896504019694E-002
  -8.1859832240591957E-002
  -7.5569463806216264E-002
  -6.9610964288895863E-002
  -6.4064578430878302E-002
  -5.8942847150181707E-002
  -5.3617111537194562E-002
  -4.8442506992007604E-002
  -4.3402384760390204E-002
  -3.8499029439132193E-002
  -3.3615829457691287E-002
  -2.8404645418576600E-002
  -2.3034342501538251E-002
  -1.7179064016068068E-002
  -1.0977024034200195E-002
   6.0190951589837071E-005
   1.9476222810260026E-003
   2.5643609095735102E-003
   2.0309545530276486E-003
  -8.2598452132399205E-002
  -8.2179773356156796E-002
  -7.4435572881317372E-002
  -6.7480967098544439E-002
  -6.1226423276021812E-002
  -5.5221988507690008E-002
  -4.9478620589044495E-002
  -4.4088856138797400E-002
  -3.9028821292511597E-002
  -3.4232107170810884E-002
  -2.9531591565323069E-002
  -2.4949018972338678E-002
  -2.0287137563966086E-002
  -1.5311426967686814E-002
  -1.0502162323050266E-002
  -1.9086452347081870E-003
   1.0215226816637198E-003
   2.2979123843638333E-003
   4.8831328440206434E-003
   5.7173434047760700E-003
   4.2948541320668712E-003
  -6.7187393143143023E-002
  -6.6808832450342262E-002
  -5.9232925770424528E-002
  -5.2010581433895454E-002
  -4.5391611687588804E-002
  -3.9419995189889388E-002
  -3.4163872459138614E-002
  -2.9128541112083128E-002
  -2.4283206429167058E-002
  -1.9246722462934102E-002
  -1.5333128762727272E-002
  -1.1635867011652755E-002
  -7.4653364969734966E-003
   3.7609863490314981E-004
   1.3811098799162782E-003
   2.3853687095157063E-003
   3.8269657128127436E-003
   5.6367797069407817E-003
   8.3000217938944444E-003
   8.0118295094665521E-003
   5.8327254600629109E-003
  -5.0438365203224089E-002
  -5.0063354074551980E-002
  -4.2023598139620241E-002
  -3.5227459507632834E-002
  -2.8861665143700269E-002
  -2.2796178609830096E-002
  -1.8061639440041355E-002
  -1.3896670949723206E-002
  -9.4832476380581204E-003
   7.6979032482663121E-005
   9.0986512004080297E-004
   1.7580841093227453E-003
   2.5229273965840012E-003
   3.4685813057218117E-003
   4.8973166265277486E-003
   6.3433564110647912E-003
   7.8189978785643301E-003
   9.0920142931601652E-003
   1.1576040501300074E-002
   1.0190550597411254E-002
   6.9802103439709183E-003
  -3.2194762885962555E-002
  -3.1787218652404955E-002
  -2.3431805332884491E-002
  -1.7350141579414273E-002
  -1.1678756058063023E-002
  -1.9468508100088863E-003
   8.1115693366599602E-004
   1.7501308999493361E-003
   2.5478624550654065E-003
   3.3767953810590087E-003
   4.4641155985016079E-003
   5.7085285527797699E-003
   6.8733799236215540E-003
   7.9675120448190161E-003
   9.0146010772888009E-003
   1.0091211480846225E-002
   1.1360378496217511E-002
   1.2467864347020579E-002
   1.4787555096253922E-002
   1.2373546333988994E-002
   8.0077425301832202E-003
  -1.2755721961744062E-002
  -1.1841393717497447E-002
   9.3805778627440535E-004
   2.6489954373110389E-003
   3.9856194847210577E-003
   5.1114790796496761E-003
   6.3550088950081827E-003
   7.8248663624379579E-003
   9.0893526503142922E-003
   1.0208019574072748E-002
   1.1164689941547375E-002
   1.2034337049625676E-002
   1.2898456606408917E-002
   1.3789573667086181E-002
   1.4703399724705017E-002
   1.5616495611808731E-002
   1.6613727016071046E-002
   1.7488083130805684E-002
   1.9251476708553809E-002
   1.4997951489454861E-002
   9.3004357572805934E-003
   6.8338420600797603E-003
   6.3317656000774145E-003
   8.1512008335117223E-003
   9.8950447857487009E-003
   1.0962019925266004E-002
   1.1698614940060584E-002
   1.2175778269170517E-002
   1.2528318143430601E-002
   1.2871412558869607E-002
   1.3235434553290995E-002
   1.3626564871766387E-002
   1.4046836783566484E-002
   1.4499489426545718E-002
   1.4993668598765811E-002
   1.5529020686321905E-002
   1.6076939587729443E-002
   1.6654657151690080E-002
   1.7251148894122353E-002
   1.8186585059440232E-002
   1.7228487688666701E-002
   1.2072469014506091E-002
   1.0356885999074779E-002
   1.1579974791362585E-002
   1.4497589057935937E-002
   1.5226864984555014E-002
   1.4699264925833825E-002
   1.4094692516823607E-002
   1.3520607768821599E-002
   1.3050333293418110E-002
   1.2688161677488178E-002
   1.2427023912616795E-002
   1.2259143135608682E-002
   1.2179479559681780E-002
   1.2183701438328958E-002
   1.2266527030587861E-002
   1.2425169128958418E-002
   1.2662558729148562E-002
   1.2988710541820913E-002
   1.3421937261360210E-002
   1.4046120610780703E-002
   1.4853485503451230E-002
   1.5359320062417558E-002
 -0.14034063821326279     
 -0.13957998346851996     
 -0.13932629481960931     
 -0.13920914410150120     
 -0.13906236858883775     
 -0.13893714445060545     
 -0.13880899627463564     
 -0.13865506214346299     
 -0.13851171502045345     
 -0.13834002722017705     
 -0.13815384915751244     
 -0.13792898499303782     
 -0.13764151947028033     
 -0.13729497630980411     
 -0.13683613007853263     
 -0.13622917117646263     
 -0.13541727790705771     
 -0.13429301783927441     
 -0.13305693942151595     
 -0.12956071745953415     
 -0.12890511292324777     
 -0.13896140573175431     
 -0.13859097549960592     
 -0.13746542082470944     
 -0.13756123191988195     
 -0.13743227300439562     
 -0.13730165092895535     
 -0.13716201520146928     
 -0.13700997508012930     
 -0.13684251900142450     
 -0.13663797223567728     
 -0.13640318206673591     
 -0.13610912559970520     
 -0.13574600952175733     
 -0.13528303555428811     
 -0.13467847274031788     
 -0.13389137780394547     
 -0.13285073937006980     
 -0.13145505564996460     
 -0.12975322376707227     
 -0.12612995060516363     
 -0.12625882822650289     
 -0.13798831090875843     
 -0.13723428532624518     
 -0.13571349907331581     
 -0.13570270825384673     
 -0.13531910326412827     
 -0.13497301167920880     
 -0.13461076620827614     
 -0.13423114393335958     
 -0.13381244940417175     
 -0.13334757905092720     
 -0.13281690388360534     
 -0.13219954635692074     
 -0.13146453237367023     
 -0.13057753959300630     
 -0.12948159862841654     
 -0.12811220472230073     
 -0.12639973668770635     
 -0.12426816529754485     
 -0.12176274994202957     
 -0.11748728506497340     
 -0.11704582913433283     
 -0.13709356712314924     
 -0.13671803149120665     
 -0.13493299970358369     
 -0.13469001215367127     
 -0.13407092757300032     
 -0.13347351026940069     
 -0.13284155025340294     
 -0.13217233073496906     
 -0.13144301297875899     
 -0.13064136963684281     
 -0.12973721319797926     
 -0.12870384395523587     
 -0.12749776349184580     
 -0.12607562131141067     
 -0.12438917641241305     
 -0.12239287124631645     
 -0.12001609939068046     
 -0.11718235607888634     
 -0.11388412297456191     
 -0.10894852620131026     
 -0.10861103206808270     
 -0.13590540623076688     
 -0.13568571789148792     
 -0.13353299253328696     
 -0.13295916825587586     
 -0.13204671075671284     
 -0.13113217131909324     
 -0.13016986433715300     
 -0.12914316721538721     
 -0.12803786004387774     
 -0.12683005165229447     
 -0.12548647865216095     
 -0.12398207931911373     
 -0.12228202990457529     
 -0.12034413632025745     
 -0.11810761481038609     
 -0.11550520475437978     
 -0.11246674531525244     
 -0.10890660887561431     
 -0.10475533080004133     
  -9.8919029260989930E-002
  -9.8536251665981747E-002
 -0.13438079716304299     
 -0.13425506002157503     
 -0.13171326608051315     
 -0.13074506563812621     
 -0.12946101867825335     
 -0.12815121260532372     
 -0.12677931358125069     
 -0.12532775445984096     
 -0.12378350722733576     
 -0.12212573882967476     
 -0.12033051596946517     
 -0.11835552210619413     
 -0.11615019552137883     
 -0.11366118283755265     
 -0.11082098241506780     
 -0.10755141494841150     
 -0.10373930052388977     
  -9.9200086694930759E-002
  -9.3960370710857971E-002
  -8.7401135036621599E-002
  -8.6965452023361964E-002
 -0.13235589686021174     
 -0.13230677365432247     
 -0.12933995506373600     
 -0.12788699007371748     
 -0.12615588183535420     
 -0.12438525042621768     
 -0.12255657275964542     
 -0.12066072785933370     
 -0.11867088420889994     
 -0.11655437746216461     
 -0.11426998903184134     
 -0.11177185057138024     
 -0.10900110494204789     
 -0.10588316750178192     
 -0.10230138381949909     
  -9.8112798059918044E-002
  -9.3381195810876089E-002
  -8.8099248745666867E-002
  -8.2215105404955316E-002
  -7.4711172760511591E-002
  -7.4195559355365800E-002
 -0.12967498599735061     
 -0.12971244946405319     
 -0.12625734895996482     
 -0.12424539132892420     
 -0.12202633512150247     
 -0.11978684667771328     
 -0.11749323064494822     
 -0.11511755785326787     
 -0.11262939888931250     
 -0.10998976050032223     
 -0.10714635563489010     
 -0.10402347486431697     
 -0.10050348703324682     
  -9.6537196050827806E-002
  -9.2188904396917792E-002
  -8.7412478689882708E-002
  -8.2149280686180937E-002
  -7.5967495526873818E-002
  -6.8990653845037025E-002
  -6.1017163534520545E-002
  -6.0510140939293362E-002
 -0.12616741161361802     
 -0.12629166838829198     
 -0.12232892780296641     
 -0.11975467920877686     
 -0.11702748296789768     
 -0.11426533927444485     
 -0.11143796513127494     
 -0.10851080636247673     
 -0.10543446431989623     
 -0.10212747312220941     
  -9.8501238374982258E-002
  -9.4619041627040462E-002
  -9.0480821033990161E-002
  -8.6046179561801203E-002
  -8.1233987594548945E-002
  -7.5638755563704529E-002
  -6.9467755984058868E-002
  -6.2767280419638555E-002
  -5.5647052441341875E-002
  -4.7363886091129723E-002
  -4.6874609349028575E-002
 -0.12176775773629797     
 -0.12191965656942209     
 -0.11747573428146882     
 -0.11427409738463001     
 -0.11095431615947868     
 -0.10758125120588072     
 -0.10410111901840957     
 -0.10042062923383178     
  -9.6543084950256805E-002
  -9.2557067481305821E-002
  -8.8432598849595478E-002
  -8.4147313106394270E-002
  -7.9532777653689046E-002
  -7.4314951550081360E-002
  -6.8761553418544480E-002
  -6.2823830963582669E-002
  -5.6564261850168732E-002
  -4.9691953966862379E-002
  -4.1917353310189073E-002
  -3.3424431046664024E-002
  -3.2976852843252309E-002
 -0.11635849339462921     
 -0.11642355929973691     
 -0.11145263483764080     
 -0.10751809797232045     
 -0.10345180409731604     
  -9.9213636654766957E-002
  -9.4909744835453141E-002
  -9.0604427454492792E-002
  -8.6287223609413807E-002
  -8.1910792278788988E-002
  -7.7167485753657186E-002
  -7.2168620752740997E-002
  -6.7006092752372570E-002
  -6.1619202167251710E-002
  -5.6092508311842454E-002
  -5.0098425045228587E-002
  -4.3381201690796900E-002
  -3.6116583209146527E-002
  -2.8498683058607175E-002
  -2.0023426477554791E-002
  -1.9655967397513928E-002
 -0.10959261901020367     
 -0.10951057877065228     
 -0.10386134948651728     
  -9.8899831422370660E-002
  -9.3937581055592120E-002
  -8.9077475579683235E-002
  -8.4331400986625102E-002
  -7.9546562132340959E-002
  -7.4492789499217657E-002
  -6.9465224799144132E-002
  -6.4417103169639098E-002
  -5.9365228605984116E-002
  -5.4365162872634362E-002
  -4.8872368168945489E-002
  -4.3013063885755230E-002
  -3.6783753163433602E-002
  -3.0320141313667632E-002
  -2.3003668979956798E-002
  -1.4951187396021888E-002
  -7.0749158227429547E-003
  -6.9348642456777696E-003
 -0.10079165324682969     
 -0.10057207538041488     
  -9.4060272832812472E-002
  -8.8376036645091305E-002
  -8.2918886325343361E-002
  -7.7380781217666561E-002
  -7.1862145828560833E-002
  -6.6521503547399802E-002
  -6.1331089373918825E-002
  -5.6378900734069641E-002
  -5.1450476300043589E-002
  -4.6224632644839780E-002
  -4.0915707594794008E-002
  -3.5482598283328767E-002
  -3.0038083696421476E-002
  -2.3953462668380995E-002
  -1.7369837042544897E-002
  -9.7003524183040535E-003
   9.5219026317672358E-004
   6.2882818719100725E-003
   6.1789770830016251E-003
  -8.9774928449888033E-002
  -8.9447444434119089E-002
  -8.2538399293652392E-002
  -7.6000675523667433E-002
  -6.9691506349922508E-002
  -6.3715199163227557E-002
  -5.8150811702454203E-002
  -5.3019472880761170E-002
  -4.7682177536888130E-002
  -4.2496290114742596E-002
  -3.7446227768858406E-002
  -3.2534014645809683E-002
  -2.7645396182846425E-002
  -2.2427471166099285E-002
  -1.7049525653388017E-002
  -1.1189252781561661E-002
  -4.9880919194936930E-003
   5.8778319729597206E-003
   7.8942443955436568E-003
   8.6324029927429078E-003
   8.0831396175190286E-003
  -7.6686896660902476E-002
  -7.6307499653090638E-002
  -6.8546334433300715E-002