# vtk DataFile Version 2.0
3D Unstructured Grid of Linear Triangles
ASCII
DATASET UNSTRUCTURED_GRID
FIELD FieldData  1
TIME 1 1 double
        3600.00000
POINTS     7056 float
      0.00000000E+00  1.00000000E+01  1.00000000E+00
      5.00000000E-01  1.00000000E+01  9.93333333E-01
      1.00000000E+00  1.00000000E+01  9.83333333E-01
      1.50000000E+00  1.00000000E+01  9.73333333E-01
      2.00000000E+00  1.00000000E+01  9.63333333E-01
      2.50000000E+00  1.00000000E+01  9.53333333E-01
      3.00000000E+00  1.00000000E+01  9.43333333E-01
      3.50000000E+00  1.00000000E+01  9.33333333E-01
      4.00000000E+00  1.00000000E+01  9.23333333E-01
      4.50000000E+00  1.00000000E+01  9.13333333E-01
      5.00000000E+00  1.00000000E+01  9.03333333E-01
      5.50000000E+00  1.00000000E+01  8.93333333E-01
      6.00000000E+00  1.00000000E+01  8.83333333E-01
      6.50000000E+00  1.00000000E+01  8.73333333E-01
      7.00000000E+00  1.00000000E+01  8.63333333E-01
      7.50000000E+00  1.00000000E+01  8.53333333E-01
      8.00000000E+00  1.00000000E+01  8.43333333E-01
      8.50000000E+00  1.00000000E+01  8.33333333E-01
      9.00000000E+00  1.00000000E+01  8.23333333E-01
      9.50000000E+00  1.00000000E+01  8.13333333E-01
      1.00000000E+01  1.00000000E+01  8.10000000E-01
      0.00000000E+00  9.50000000E+00  9.83333333E-01
      5.00000000E-01  9.50000000E+00  9.82500000E-01
      1.00000000E+00  9.50000000E+00  9.72500000E-01
      1.50000000E+00  9.50000000E+00  9.62500000E-01
      2.00000000E+00  9.50000000E+00  9.52500000E-01
      2.50000000E+00  9.50000000E+00  9.42500000E-01
      3.00000000E+00  9.50000000E+00  9.32500000E-01
      3.50000000E+00  9.50000000E+00  9.22500000E-01
      4.00000000E+00  9.50000000E+00  9.12500000E-01
      4.50000000E+00  9.50000000E+00  9.02500000E-01
      5.00000000E+00  9.50000000E+00  8.92500000E-01
      5.50000000E+00  9.50000000E+00  8.82500000E-01
      6.00000000E+00  9.50000000E+00  8.72500000E-01
      6.50000000E+00  9.50000000E+00  8.62500000E-01
      7.00000000E+00  9.50000000E+00  8.52500000E-01
      7.50000000E+00  9.50000000E+00  8.42500000E-01
      8.00000000E+00  9.50000000E+00  8.32500000E-01
      8.50000000E+00  9.50000000E+00  8.22500000E-01
      9.00000000E+00  9.50000000E+00  8.12500000E-01
      9.50000000E+00  9.50000000E+00  8.02500000E-01
      1.00000000E+01  9.50000000E+00  8.01666667E-01
      0.00000000E+00  9.00000000E+00  9.58333333E-01
      5.00000000E-01  9.00000000E+00  9.57500000E-01
      1.00000000E+00  9.00000000E+00  9.47500000E-01
      1.50000000E+00  9.00000000E+00  9.37500000E-01
      2.00000000E+00  9.00000000E+00  9.27500000E-01
      2.50000000E+00  9.00000000E+00  9.17500000E-01
      3.00000000E+00  9.00000000E+00  9.07500000E-01
      3.50000000E+00  9.00000000E+00  8.97500000E-01
      4.00000000E+00  9.00000000E+00  8.87500000E-01
      4.50000000E+00  9.00000000E+00  8.77500000E-01
      5.00000000E+00  9.00000000E+00  8.67500000E-01
      5.50000000E+00  9.00000000E+00  8.57500000E-01
      6.00000000E+00  9.00000000E+00  8.47500000E-01
      6.50000000E+00  9.00000000E+00  8.37500000E-01
      7.00000000E+00  9.00000000E+00  8.27500000E-01
      7.50000000E+00  9.00000000E+00  8.17500000E-01
      8.00000000E+00  9.00000000E+00  8.07500000E-01
      8.50000000E+00  9.00000000E+00  7.97500000E-01
      9.00000000E+00  9.00000000E+00  7.87500000E-01
      9.50000000E+00  9.00000000E+00  7.77500000E-01
      1.00000000E+01  9.00000000E+00  7.76666667E-01
      0.00000000E+00  8.50000000E+00  9.33333333E-01
      5.00000000E-01  8.50000000E+00  9.32500000E-01
      1.00000000E+00  8.50000000E+00  9.22500000E-01
      1.50000000E+00  8.50000000E+00  9.12500000E-01
      2.00000000E+00  8.50000000E+00  9.02500000E-01
      2.50000000E+00  8.50000000E+00  8.92500000E-01
      3.00000000E+00  8.50000000E+00  8.82500000E-01
      3.50000000E+00  8.50000000E+00  8.72500000E-01
      4.00000000E+00  8.50000000E+00  8.62500000E-01
      4.50000000E+00  8.50000000E+00  8.52500000E-01
      5.00000000E+00  8.50000000E+00  8.42500000E-01
      5.50000000E+00  8.50000000E+00  8.32500000E-01
      6.00000000E+00  8.50000000E+00  8.22500000E-01
      6.50000000E+00  8.50000000E+00  8.12500000E-01
      7.00000000E+00  8.50000000E+00  8.02500000E-01
      7.50000000E+00  8.50000000E+00  7.92500000E-01
      8.00000000E+00  8.50000000E+00  7.82500000E-01
      8.50000000E+00  8.50000000E+00  7.72500000E-01
      9.00000000E+00  8.50000000E+00  7.62500000E-01
      9.50000000E+00  8.50000000E+00  7.52500000E-01
      1.00000000E+01  8.50000000E+00  7.51666667E-01
      0.00000000E+00  8.00000000E+00  9.08333333E-01
      5.00000000E-01  8.00000000E+00  9.07500000E-01
      1.00000000E+00  8.00000000E+00  8.97500000E-01
      1.50000000E+00  8.00000000E+00  8.87500000E-01
      2.00000000E+00  8.00000000E+00  8.77500000E-01
      2.50000000E+00  8.00000000E+00  8.67500000E-01
      3.00000000E+00  8.00000000E+00  8.57500000E-01
      3.50000000E+00  8.00000000E+00  8.47500000E-01
      4.00000000E+00  8.00000000E+00  8.37500000E-01
      4.50000000E+00  8.00000000E+00  8.27500000E-01
      5.00000000E+00  8.00000000E+00  8.17500000E-01
      5.50000000E+00  8.00000000E+00  8.07500000E-01
      6.00000000E+00  8.00000000E+00  7.97500000E-01
      6.50000000E+00  8.00000000E+00  7.87500000E-01
      7.00000000E+00  8.00000000E+00  7.77500000E-01
      7.50000000E+00  8.00000000E+00  7.67500000E-01
      8.00000000E+00  8.00000000E+00  7.57500000E-01
      8.50000000E+00  8.00000000E+00  7.47500000E-01
      9.00000000E+00  8.00000000E+00  7.37500000E-01
      9.50000000E+00  8.00000000E+00  7.27500000E-01
      1.00000000E+01  8.00000000E+00  7.26666667E-01
      0.00000000E+00  7.50000000E+00  8.83333333E-01
      5.00000000E-01  7.50000000E+00  8.82500000E-01
      1.00000000E+00  7.50000000E+00  8.72500000E-01
      1.50000000E+00  7.50000000E+00  8.62500000E-01
      2.00000000E+00  7.50000000E+00  8.52500000E-01
      2.50000000E+00  7.50000000E+00  8.42500000E-01
      3.00000000E+00  7.50000000E+00  8.32500000E-01
      3.50000000E+00  7.50000000E+00  8.22500000E-01
      4.00000000E+00  7.50000000E+00  8.12500000E-01
      4.50000000E+00  7.50000000E+00  8.02500000E-01
      5.00000000E+00  7.50000000E+00  7.92500000E-01
      5.50000000E+00  7.50000000E+00  7.82500000E-01
      6.00000000E+00  7.50000000E+00  7.72500000E-01
      6.50000000E+00  7.50000000E+00  7.62500000E-01
      7.00000000E+00  7.50000000E+00  7.52500000E-01
      7.50000000E+00  7.50000000E+00  7.42500000E-01
      8.00000000E+00  7.50000000E+00  7.32500000E-01
      8.50000000E+00  7.50000000E+00  7.22500000E-01
      9.00000000E+00  7.50000000E+00  7.12500000E-01
      9.50000000E+00  7.50000000E+00  7.02500000E-01
      1.00000000E+01  7.50000000E+00  7.01666667E-01
      0.00000000E+00  7.00000000E+00  8.58333333E-01
      5.00000000E-01  7.00000000E+00  8.57500000E-01
      1.00000000E+00  7.00000000E+00  8.47500000E-01
      1.50000000E+00  7.00000000E+00  8.37500000E-01
      2.00000000E+00  7.00000000E+00  8.27500000E-01
      2.50000000E+00  7.00000000E+00  8.17500000E-01
      3.00000000E+00  7.00000000E+00  8.07500000E-01
      3.50000000E+00  7.00000000E+00  7.97500000E-01
      4.00000000E+00  7.00000000E+00  7.87500000E-01
      4.50000000E+00  7.00000000E+00  7.77500000E-01
      5.00000000E+00  7.00000000E+00  7.67500000E-01
      5.50000000E+00  7.00000000E+00  7.57500000E-01
      6.00000000E+00  7.00000000E+00  7.47500000E-01
      6.50000000E+00  7.00000000E+00  7.37500000E-01
      7.00000000E+00  7.00000000E+00  7.27500000E-01
      7.50000000E+00  7.00000000E+00  7.17500000E-01
      8.00000000E+00  7.00000000E+00  7.07500000E-01
      8.50000000E+00  7.00000000E+00  6.97500000E-01
      9.00000000E+00  7.00000000E+00  6.87500000E-01
      9.50000000E+00  7.00000000E+00  6.77500000E-01
      1.00000000E+01  7.00000000E+00  6.76666667E-01
      0.00000000E+00  6.50000000E+00  8.33333333E-01
      5.00000000E-01  6.50000000E+00  8.32500000E-01
      1.00000000E+00  6.50000000E+00  8.22500000E-01
      1.50000000E+00  6.50000000E+00  8.12500000E-01
      2.00000000E+00  6.50000000E+00  8.02500000E-01
      2.50000000E+00  6.50000000E+00  7.92500000E-01
      3.00000000E+00  6.50000000E+00  7.82500000E-01
      3.50000000E+00  6.50000000E+00  7.72500000E-01
      4.00000000E+00  6.50000000E+00  7.62500000E-01
      4.50000000E+00  6.50000000E+00  7.52500000E-01
      5.00000000E+00  6.50000000E+00  7.42500000E-01
      5.50000000E+00  6.50000000E+00  7.32500000E-01
      6.00000000E+00  6.50000000E+00  7.22500000E-01
      6.50000000E+00  6.50000000E+00  7.12500000E-01
      7.00000000E+00  6.50000000E+00  7.02500000E-01
      7.50000000E+00  6.50000000E+00  6.92500000E-01
      8.00000000E+00  6.50000000E+00  6.82500000E-01
      8.50000000E+00  6.50000000E+00  6.72500000E-01
      9.00000000E+00  6.50000000E+00  6.62500000E-01
      9.50000000E+00  6.50000000E+00  6.52500000E-01
      1.00000000E+01  6.50000000E+00  6.51666667E-01
      0.00000000E+00  6.00000000E+00  8.08333333E-01
      5.00000000E-01  6.00000000E+00  8.07500000E-01
      1.00000000E+00  6.00000000E+00  7.97500000E-01
      1.50000000E+00  6.00000000E+00  7.87500000E-01
      2.00000000E+00  6.00000000E+00  7.77500000E-01
      2.50000000E+00  6.00000000E+00  7.67500000E-01
      3.00000000E+00  6.00000000E+00  7.57500000E-01
      3.50000000E+00  6.00000000E+00  7.47500000E-01
      4.00000000E+00  6.00000000E+00  7.37500000E-01
      4.50000000E+00  6.00000000E+00  7.27500000E-01
      5.00000000E+00  6.00000000E+00  7.17500000E-01
      5.50000000E+00  6.00000000E+00  7.07500000E-01
      6.00000000E+00  6.00000000E+00  6.97500000E-01
      6.50000000E+00  6.00000000E+00  6.87500000E-01
      7.00000000E+00  6.00000000E+00  6.77500000E-01
      7.50000000E+00  6.00000000E+00  6.67500000E-01
      8.00000000E+00  6.00000000E+00  6.57500000E-01
[...]
POINT_DATA     7056
SCALARS pressure float
LOOKUP_TABLE default
 -0.17751448818470256     
 -0.17658303806656253     
 -0.17637541350167593     
 -0.17627688287390733     
 -0.17615827814121723     
 -0.17606044090069056     
 -0.17596298043754963     
 -0.17584549971892738     
 -0.17573627307621920     
 -0.17560476555468055     
 -0.17546159137959172     
 -0.17528877979715513     
 -0.17506908104666691     
 -0.17480267258160415     
 -0.17444998573913348     
 -0.17398090767055369     
 -0.17335127997804942     
 -0.17246394044193220     
 -0.17162193282539981     
 -0.16861380343926963     
 -0.16804398587327710     
 -0.17589942781597062     
 -0.17528807614726280     
 -0.17421406825013050     
 -0.17444092048237417     
 -0.17439572645277446     
 -0.17435133267068356     
 -0.17429181167171992     
 -0.17421786155433217     
 -0.17412862468977941     
 -0.17400706178171066     
 -0.17385830037774963     
 -0.17365975555734078     
 -0.17340116168487954     
 -0.17305642159895820     
 -0.17258949314746347     
 -0.17196394276889021     
 -0.17112499821923463     
 -0.16999062202055212     
 -0.16870107776813109     
 -0.16560115776747264     
 -0.16547279281134850     
 -0.17514283094911748     
 -0.17424581874710893     
 -0.17280514662740701     
 -0.17299551140057884     
 -0.17272235394065472     
 -0.17249582951672368     
 -0.17225403140173209     
 -0.17199739698275562     
 -0.17170768826152533     
 -0.17137731563221958     
 -0.17098847683473156     
 -0.17052095913594223     
 -0.16994668499361243     
 -0.16923449358435563     
 -0.16833795121770170     
 -0.16720861825767100     
 -0.16579405251902907     
 -0.16402344754602738     
 -0.16201234133032427     
 -0.15816006293670307     
 -0.15717317164720271     
 -0.17453355872658702     
 -0.17411987093999173     
 -0.17246240214415917     
 -0.17251085735371832     
 -0.17208019860639584     
 -0.17168533772773009     
 -0.17125565248016458     
 -0.17078498811186951     
 -0.17025287216742141     
 -0.16964492995636804     
 -0.16893430650672506     
 -0.16809556717263480     
 -0.16709262659428775     
 -0.16588956309070263     
 -0.16444220102093390     
 -0.16270191856361266     
 -0.16060922409815126     
 -0.15810053843860017     
 -0.15524436689441026     
 -0.15057862839056321     
 -0.14982514624155610     
 -0.17371714765810314     
 -0.17351271180186550     
 -0.17153277896566596     
 -0.17134656586726615     
 -0.17071200647985496     
 -0.17008119147547518     
 -0.16938999899642676     
 -0.16862208484876418     
 -0.16776104616054741     
 -0.16678442246462019     
 -0.16566319177980340     
 -0.16437022900580478     
 -0.16286762921799430     
 -0.16111193084912157     
 -0.15905452397949224     
 -0.15663978154102376     
 -0.15380688521269864     
 -0.15048643544687917     
 -0.14670585846930850     
 -0.14128959582682810     
 -0.14071413809174244     
 -0.17267196253888992     
 -0.17259901750533979     
 -0.17030082804858304     
 -0.16980983910683578     
 -0.16888264817942120     
 -0.16791879202592569     
 -0.16686629142742557     
 -0.16570605275756381     
 -0.16442049026010844     
 -0.16298345289101446     
 -0.16136478030829682     
 -0.15952905362979045     
 -0.15743363175671660     
 -0.15503014339162266     
 -0.15226161350128589     
 -0.14906704524968037     
 -0.14540569026566341     
 -0.14129353949347240     
 -0.13675139460008334     
 -0.13077190411509185     
 -0.13026910135307349     
 -0.17124942395138965     
 -0.17122335946241318     
 -0.16857253295420294     
 -0.16766574454807670     
 -0.16634711772443106     
 -0.16495688311876358     
 -0.16345188243668424     
 -0.16181236635579757     
 -0.16001347784711123     
 -0.15802688654842037     
 -0.15581709484620163     
 -0.15334186388466925     
 -0.15055251696904232     
 -0.14739922888950352     
 -0.14387221021315089     
 -0.13997341761829180     
 -0.13565894191780800     
 -0.13088432950737230     
 -0.12562746620105106     
 -0.11909535083410146     
 -0.11858051564513036     
 -0.16925184179667030     
 -0.16918853796967206     
 -0.16612840541450841     
 -0.16469666597355057     
 -0.16289166889157916     
 -0.16098353948788721     
 -0.15893207571080950     
 -0.15671502710002425     
 -0.15430455250634631     
 -0.15166629098753234     
 -0.14876005118037139     
 -0.14556106431111887     
 -0.14208388784195600     
 -0.13830566053807794     
 -0.13418395927825727     
 -0.12967783318683401     
 -0.12473699828927558     
 -0.11931555109792791     
 -0.11330416215481837     
 -0.10585386211569879     
 -0.10526560096181263     
 -0.16642138981235788     
 -0.16625031304082749     
 -0.16272496667175981     
 -0.16066428716154318     
 -0.15826564580764374     
 -0.15573060181932311     
 -0.15302395115101794     
 -0.15011919508096339     
 -0.14699181694047098     
 -0.14365508948215036     
 -0.14011896060702855     
 -0.13635049355535392     
 -0.13231627415885402     
 -0.12797682909865926     
 -0.12328613166256408     
 -0.11820371989705439     
 -0.11257421679549054     
 -0.10618301141101787     
  -9.9227339831031852E-002
  -9.1380351477640398E-002
  -9.0796326868978067E-002
 -0.16245620551839712     
 -0.16214583111185227     
 -0.15807400931806431     
 -0.15525873971769108     
 -0.15214036568919140     
 -0.14885386495913455     
 -0.14539627709348407     
 -0.14180975910057134     
 -0.13808627596020925     
 -0.13419983369874944     
 -0.13012443960936937     
 -0.12582381608477963     
 -0.12126501051613491     
 -0.11639757247275656     
 -0.11101038775157414     
 -0.10506677200987283     
  -9.8671724993557419E-002
  -9.1849769160692610E-002
  -8.4366385747378494E-002
  -7.5828695614219663E-002
  -7.5190504496447708E-002
 -0.15696770603621238     
 -0.15654326295942092     
 -0.15179259877727652     
 -0.14808550174034013     
 -0.14416976420790292     
 -0.14019191957129534     
 -0.13613514393914403     
 -0.13198451105237738     
 -0.12771763977436226     
 -0.12330795580015098     
 -0.11873614871161833     
 -0.11390193118628913     
 -0.10859930824881650     
 -0.10297494505700777     
  -9.7031234150555423E-002
  -9.0799760668387755E-002
  -8.3977757852986806E-002
  -7.6520581260707335E-002
  -6.8522178435533820E-002
  -6.0033643405857234E-002
  -5.9533192690256753E-002
 -0.14945106123010823     
 -0.14900134849630806     
 -0.14351890988269031     
 -0.13903464475280727     
 -0.13447352062968693     
 -0.12988656566573492     
 -0.12525582473637883     
 -0.12057547002758766     
 -0.11579970117721712     
 -0.11073489790652061     
 -0.10542273865158151     
  -9.9947737966773795E-002
  -9.4316237543418474E-002
  -8.8527655541959197E-002
  -8.2161510420392991E-002
  -7.5433130150804314E-002
  -6.8307078914405434E-002
  -6.0906958950874987E-002
  -5.2824609483550368E-002
  -4.4015736369621881E-002
  -4.3501409641563633E-002
 -0.13985270324501373     
 -0.13941674646644189     
 -0.13337137434756119     
 -0.12817155540469133     
 -0.12297733932463592     
 -0.11782210383464856     
 -0.11257002587091615     
 -0.10710871930952938     
 -0.10162594698793839     
  -9.6134217446076697E-002
  -9.0648451027686400E-002
  -8.4921263999336680E-002
  -7.8915653436509539E-002
  -7.2727355977677294E-002
  -6.6336009955353603E-002
  -5.9864828554739555E-002
  -5.2755942613573512E-002
  -4.5173371418568552E-002
  -3.7178018483484579E-002
  -2.8667150779832853E-002
  -2.8359451792152608E-002
 -0.12829572143345028     
 -0.12780979137493675     
 -0.12122796413291269     
 -0.11534030625763476     
 -0.10929527968879693     
 -0.10330110016995124     
  -9.7448155691673963E-002
  -9.1755661025923946E-002
  -8.6073033717179281E-002
  -8.0225732680454229E-002
  -7.4387238296720018E-002
  -6.8537100931630887E-002
  -6.2705067412247378E-002
  -5.6803026129041340E-002
  -5.0524427017724055E-002
  -4.4001616904411123E-002
  -3.7220100227433051E-002
  -2.9894368047738349E-002
  -2.1808044416442098E-002
  -1.4056740775470394E-002
  -1.4204832056515687E-002
 -0.11455217078875989     
 -0.11402105642832937     
 -0.10655229800178646     
  -9.9729923618529531E-002
  -9.3230527842930733E-002
  -8.7002622446424233E-002
  -8.0734637588217736E-002
  -7.4671827089637627E-002
  -6.8800857113767530E-002
  -6.3123717754908770E-002
  -5.7613308413747552E-002
  -5.1943782189100160E-002
  -4.6248421143550836E-002
  -4.0514440775505631E-002
  -3.4683471387480076E-002
  -2.8672326853509494E-002
  -2.2292387604269204E-002
  -1.4824765567800265E-002
  -2.5887819465231334E-003
   3.2477369914167061E-005
  -2.2942424269827080E-003
  -9.7729929483110697E-002
  -9.7226991784795727E-002
  -8.9543250594079249E-002
  -8.2173709054518262E-002
  -7.5133249284572601E-002
  -6.8535256985522874E-002
  -6.2442241064984409E-002
  -5.6704131069038100E-002
  -5.1031405385334544E-002
  -4.5526360705410454E-002
  -4.0194685919991216E-002
  -3.5066503645658158E-002
  -2.9893165148390043E-002
  -2.4597554601641022E-002
  -1.8834566138103623E-002
  -1.3850485522378251E-002
  -8.4980455582099965E-003
   5.5100153851434582E-004
   2.6217329923584093E-003
   2.1951859598387533E-003
   9.2065345099039239E-004
  -7.8776057027841961E-002
  -7.8267338924338306E-002
  -7.0031926416576240E-002
  -6.2613773336619327E-002
  -5.5669188187682350E-002
  -4.8999472924577826E-002
  -4.3125379299979255E-002
  -3.7829910974127565E-002
  -3.2814762697431214E-002
  -2.7856145836770888E-002
  -2.2805122601491160E-002
  -1.8139158584385560E-002
  -1.3910130164717729E-002
  -9.2586181935465379E-003
   2.3131081459133566E-004
   1.2773444833774116E-003
   2.4908438389009135E-003
   3.7041678348017359E-003
   6.6477956830172441E-003
   6.2073178884299047E-003
   3.3972146005270582E-003
  -5.7859463565924175E-002
  -5.7379885125513751E-002
  -4.9064718473544697E-002
  -4.1665382852725294E-002
  -3.4917748377891744E-002
  -2.7891603730724242E-002
  -2.2846008110321166E-002
  -1.8609562352869969E-002
  -1.4658285512612682E-002
  -1.0553661812287613E-002
  -3.8513726267176531E-003
   6.0691073418227585E-004
   1.5503979996171491E-003
   2.4683810802157312E-003
   3.4805057302228484E-003
   4.8993863006060517E-003
   6.7731087668528060E-003
   8.3148276696752756E-003
   1.0770823949043844E-002
   9.1760543511006272E-003
   5.5814287282092527E-003
  -3.5111602583474649E-002
  -3.4433080439479721E-002
  -2.6318720998368426E-002
  -1.9099427527232014E-002
  -1.3089799273754858E-002
   1.9987669011269410E-004
   1.3037926556570471E-003
   2.3853163804524978E-003
   3.3438547734525770E-003
   4.2729549519137100E-003
   5.1494111335139859E-003
   6.1817554521882024E-003
   7.6197525472894538E-003
   9.0423867804787453E-003
   1.0405170098564911E-002
   1.1598031300375285E-002
   1.2762643415532120E-002
   1.3813469250413813E-002
   1.5773887274808274E-002
   1.2305824009845374E-002
   7.4385786599666538E-003
  -1.0719512884192161E-002
  -6.6693811447891193E-003
   1.0495514433762187E-003
   2.3940166084701650E-003
   3.5188480626260998E-003
   4.4615827418302972E-003
   5.5686597095556158E-003
   6.7764378705308468E-003
   7.7397468154928430E-003
   8.6462642566160746E-003
   9.4991475110543840E-003
   1.0220801234709250E-002
   1.0828005223582335E-002
   1.1431012690296453E-002
   1.2070083420553924E-002
   1.2717307728448701E-002
   1.3384532418684907E-002
   1.4063451742954192E-002
   1.5101145190233391E-002
   1.4356701842821222E-002
   9.8915174793609614E-003
  -3.4215480042513033E-003
   7.2550197281408686E-005
   1.4449898501218130E-003
   4.2439730353701615E-003
   6.3968805143880397E-003
   8.1129587544546064E-003
   8.8921625068747595E-003
   9.1258293604224473E-003
   9.2029231764957104E-003
   9.2264368409762289E-003
   9.2442673627874828E-003
   9.2849139742105825E-003
   9.3638733273542062E-003
   9.4879295256914253E-003
   9.6613473866661650E-003
   9.8921968004705534E-003
   1.0196303150595762E-002
   1.0596923475959205E-002
   1.1178920992838248E-002
   1.1844537360913798E-002
   1.2126911251664482E-002
 -0.17167308331382880     
 -0.17078688484736515     
 -0.17057923631665153     
 -0.17048018710334031     
 -0.17036114230805821     
 -0.17026293336631276     
 -0.17016517274181661     
 -0.17004746465402129     
 -0.16993800837886414     
 -0.16980628509127571     
 -0.16966284991040032     
 -0.16948971879753177     
 -0.16926963034329964     
 -0.16900270033952744     
 -0.16864938136215687     
 -0.16817954013013409     
 -0.16754898946523678     
 -0.16666073426577568     
 -0.16581636713587719     
 -0.16280612859213547     
 -0.16233178382626412     
 -0.17011001702054637     
 -0.16958443627669470     
 -0.16851171623601677     
 -0.16873908121212841     
 -0.16869448601435841     
 -0.16865057429893143     
 -0.16859143468469481     
 -0.16851773093349956     
 -0.16842858351780413     
 -0.16830696362930989     
 -0.16815795797856714     
 -0.16795901265725890     
 -0.16769984180144248     
 -0.16735435911407479     
 -0.16688651846460861     
 -0.16625982897097438     
 -0.16541944259096159     
 -0.16428331832758883     
 -0.16299045859485928     
 -0.15988850430142046     
 -0.15985141299566791     
 -0.16935532512841214     
 -0.16854953984927137     
 -0.16711000303847479     
 -0.16730060405053840     
 -0.16702765075998818     
 -0.16680103967702858     
 -0.16655906350468927     
 -0.16630211538043066     
 -0.16601197790427180     
 -0.16568104897460997     
 -0.16529153462430932     
 -0.16482320652347496     
 -0.16424795559719771     
 -0.16353453423002731     
 -0.16263639683878603     
 -0.16150493482999367     
 -0.16008758194356543     
 -0.15831381662850216     
 -0.15629829902467843     
 -0.15244377842342127     
 -0.15154463024518666     
 -0.16874554455839857     
 -0.16842523185723046     
 -0.16676795860016894     
 -0.16681671478195628     
 -0.16638608627021326     
 -0.16599093152286284     
 -0.16556085024685468     
 -0.16508963866585977     
 -0.16455684660407288     
 -0.16394806006170770     
 -0.16323637931741330     
 -0.16239624842847045     
 -0.16139143601011902     
 -0.16018586235555915     
 -0.15873539666718667     
 -0.15699156765296732     
 -0.15489485273259998     
 -0.15238176819499769     
 -0.14952003835777353     
 -0.14485086239112790     
 -0.14417833885537995     
 -0.16792883598072586     
 -0.16781877977672172     
 -0.16583824971038438     
 -0.16565213477286347     
 -0.16501734948913027     
 -0.16438604124002945     
 -0.16369423685773091     
 -0.16292551720940843     
 -0.16206337601858309     
 -0.16108520775034277     
 -0.15996184653604784     
 -0.15866610229079697     
 -0.15716021186912801     
 -0.15540069087746364     
 -0.15333888968080431     
 -0.15091925683348398     
 -0.14808103005944381     
 -0.14475482657943711     
 -0.14096553698012493     
 -0.13553866642551152     
 -0.13503801233712068     
 -0.16688302142697828     
 -0.16690470950887862     
 -0.16460556121851747     
 -0.16411435376015904     
 -0.16318672520901362     
 -0.16222207668444252     
 -0.16116842324703873     
 -0.16000648667176906     
 -0.15871856464707707     
 -0.15727859773490030     
 -0.15565647445615469     
 -0.15381668141596033     
 -0.15171659443002239     
 -0.14930790190828261     
 -0.14653370688604606     
 -0.14333264603334875     
 -0.13966131474506993     
 -0.13553620015730242     
 -0.13097994356599732     
 -0.12498917237839191     
 -0.12455444772263514     
 -0.16545921083245121     
 -0.16552775722625271     
 -0.16287578520353804     
 -0.16196822614392140     
 -0.16064848316024455     
 -0.15925638968726877     
 -0.15774888787759736     
 -0.15610635263633818     
 -0.15430385099821672     
 -0.15231299713941757     
 -0.15009834244525991     
 -0.14761769861330423     
 -0.14482239130770114     
 -0.14166146376703698     
 -0.13812279567843547     
 -0.13421107147469438     
 -0.12988306888815868     
 -0.12509414644348110     
 -0.11982174162518926     
 -0.11327776239811942     
 -0.11282147456551128     
 -0.16345947097957791     
 -0.16349042616543832     
 -0.16042830803888017     
 -0.15899443666681684     
 -0.15718694046624565     
 -0.15527568047241622     
 -0.15322044698057544     
 -0.15099898082038474     
 -0.14858348936201202     
 -0.14593967055873081     
 -0.14302694161207746     
 -0.13981842463452865     
 -0.13632889017322192     
 -0.13253782159085514     
 -0.12840262571560221     
 -0.12388243251306805     
 -0.11892690611364846     
 -0.11348999420144787     
 -0.10746761076203516     
 -0.10000851954855154     
  -9.9471836682345285E-002
 -0.16062495101101207     
 -0.16054646248426527     
 -0.15701775049894309     
 -0.15495363360040329     
 -0.15255114064436687     
 -0.15001152235034851     
 -0.14729971958820759     
 -0.14438919207209211     
 -0.14125414658486032     
 -0.13790600782920726     
 -0.13435749788336612     
 -0.13057620911957313     
 -0.12652858275450565     
 -0.12217533898441768     
 -0.11747012523235999     
 -0.11237319476431332     
 -0.10673490442831096     
 -0.10032863677806202     
  -9.3354952984099474E-002
  -8.5494000584929217E-002
  -8.4947456077951455E-002
 -0.15665317627889197     
 -0.15643158722794159     
 -0.15235573236251568     
 -0.14953552395654812     
 -0.14641191169677900     
 -0.14311914264059719     
 -0.13965189556282750     
 -0.13605321749902732     
 -0.13231727421587650     
 -0.12841787579592265     
 -0.12432923259707325     
 -0.12001499108546375     
 -0.11544177344720424     
 -0.11056152250466517     
 -0.10516680440462725     
  -9.9207239462955552E-002
  -9.2795414909935731E-002
  -8.5954994719375788E-002
  -7.8460890272545158E-002
  -6.9913041056408234E-002
  -6.9303586499068856E-002
 -0.15115511055843536     
 -0.15081377459329806     
 -0.14605895816599063     
 -0.14234449066023591     
 -0.13841730617009562     
 -0.13442696802858517     
 -0.13035742536684813     
 -0.12619368013986595     
 -0.12191352973496428     
 -0.11749000103230260     
 -0.11290463493697124     
 -0.10806102071639045     
 -0.10274784289306944     
  -9.7108493846373503E-002
  -9.1148603974829823E-002
  -8.4900196561171815E-002
  -7.8068642251004391E-002
  -7.0596527075304866E-002
  -6.2583723580746001E-002
  -5.4084526796239117E-002
  -5.3602311756697295E-002
 -0.14362504823211714     
 -0.14325129863465189     
 -0.13775818810829102     
 -0.13326057916336928     
 -0.12868616437142166     
 -0.12408577834838538     
 -0.11944138360390398     
 -0.11474696648177724     
 -0.10995977503845675     
 -0.10488780008700124     
  -9.9561367377392948E-002
  -9.4071798423162850E-002
  -8.8424926621170172E-002
  -8.2623414372807472E-002
  -7.6247423995541463E-002
  -6.9506038876906817E-002
  -6.2366801790341340E-002
  -5.4952203651451599E-002
  -4.6861361793527519E-002
  -3.8047012363733888E-002
  -3.7542760206537851E-002
 -0.13400091775800241     
 -0.13363120460421082     
 -0.12757412398094597     
 -0.12236010030269166     
 -0.11715130356549307     
 -0.11198276557410286     
 -0.10672367268951376     
 -0.10124952088100470     
  -9.5752613976007622E-002
  -9.0246120246765135E-002
  -8.4745760802800676E-002
  -7.9011251027347615E-002
  -7.2993687863183346E-002
  -6.6794216705824097E-002
  -6.0391518091881216E-002
  -5.3908512954896473E-002
  -4.6792182253316238E-002
  -3.9201031684697109E-002
  -3.1197215453030312E-002
  -2.2683101178990091E-002
  -2.2379565035619411E-002
 -0.12241657104355318     
 -0.12198531559366092     
 -0.11539051777315835     
 -0.10949106579132203     
 -0.10343693921895067     
  -9.7428539036309353E-002
  -9.1560696875961939E-002
  -8.5853683762891972E-002
  -8.0163796006514243E-002
  -7.4304861968698122E-002
  -6.8455607482095823E-002
  -6.2594895488378974E-002
  -5.6752418575477026E-002
  -5.0843934638668771E-002
  -4.4557817517772574E-002
  -3.8028138384883677E-002
  -3.1239598086079137E-002
  -2.3904814872201786E-002
  -1.5814432811059001E-002
  -8.0641845174017415E-003
  -8.2139484456267946E-003
 -0.10864720975229196     
 -0.10816096932067017     
 -0.10068110026038035     