# vtk DataFile Version 2.0
3D Unstructured Grid of Linear Triangles
ASCII
DATASET UNSTRUCTURED_GRID
FIELD FieldData  1
TIME 1 1 double
        1807.28712
POINTS     7056 float
      0.00000000E+00  1.00000000E+01  1.00000000E+00
      5.00000000E-01  1.00000000E+01  9.93333333E-01
      1.00000000E+00  1.00000000E+01  9.83333333E-01
      1.50000000E+00  1.00000000E+01  9.73333333E-01
      2.00000000E+00  1.00000000E+01  9.63333333E-01
      2.50000000E+00  1.00000000E+01  9.53333333E-01
      3.00000000E+00  1.00000000E+01  9.43333333E-01
      3.50000000E+00  1.00000000E+01  9.33333333E-01
      4.00000000E+00  1.00000000E+01  9.23333333E-01
      4.50000000E+00  1.00000000E+01  9.13333333E-01
      5.00000000E+00  1.00000000E+01  9.03333333E-01
      5.50000000E+00  1.00000000E+01  8.93333333E-01
      6.00000000E+00  1.00000000E+01  8.83333333E-01
      6.50000000E+00  1.00000000E+01  8.73333333E-01
      7.00000000E+00  1.00000000E+01  8.63333333E-01
      7.50000000E+00  1.00000000E+01  8.53333333E-01
      8.00000000E+00  1.00000000E+01  8.43333333E-01
      8.50000000E+00  1.00000000E+01  8.33333333E-01
      9.00000000E+00  1.00000000E+01  8.23333333E-01
      9.50000000E+00  1.00000000E+01  8.13333333E-01
      1.00000000E+01  1.00000000E+01  8.10000000E-01
      0.00000000E+00  9.50000000E+00  9.83333333E-01
      5.00000000E-01  9.50000000E+00  9.82500000E-01
      1.00000000E+00  9.50000000E+00  9.72500000E-01
      1.50000000E+00  9.50000000E+00  9.62500000E-01
      2.00000000E+00  9.50000000E+00  9.52500000E-01
      2.50000000E+00  9.50000000E+00  9.42500000E-01
      3.00000000E+00  9.50000000E+00  9.32500000E-01
      3.50000000E+00  9.50000000E+00  9.22500000E-01
      4.00000000E+00  9.50000000E+00  9.12500000E-01
      4.50000000E+00  9.50000000E+00  9.02500000E-01
      5.00000000E+00  9.50000000E+00  8.92500000E-01
      5.50000000E+00  9.50000000E+00  8.82500000E-01
      6.00000000E+00  9.50000000E+00  8.72500000E-01
      6.50000000E+00  9.50000000E+00  8.62500000E-01
      7.00000000E+00  9.50000000E+00  8.52500000E-01
      7.50000000E+00  9.50000000E+00  8.42500000E-01
      8.00000000E+00  9.50000000E+00  8.32500000E-01
      8.50000000E+00  9.50000000E+00  8.22500000E-01
      9.00000000E+00  9.50000000E+00  8.12500000E-01
      9.50000000E+00  9.50000000E+00  8.02500000E-01
      1.00000000E+01  9.50000000E+00  8.01666667E-01
      0.00000000E+00  9.00000000E+00  9.58333333E-01
      5.00000000E-01  9.00000000E+00  9.57500000E-01
      1.00000000E+00  9.00000000E+00  9.47500000E-01
      1.50000000E+00  9.00000000E+00  9.37500000E-01
      2.00000000E+00  9.00000000E+00  9.27500000E-01
      2.50000000E+00  9.00000000E+00  9.17500000E-01
      3.00000000E+00  9.00000000E+00  9.07500000E-01
      3.50000000E+00  9.00000000E+00  8.97500000E-01
      4.00000000E+00  9.00000000E+00  8.87500000E-01
      4.50000000E+00  9.00000000E+00  8.77500000E-01
      5.00000000E+00  9.00000000E+00  8.67500000E-01
      5.50000000E+00  9.00000000E+00  8.57500000E-01
      6.00000000E+00  9.00000000E+00  8.47500000E-01
      6.50000000E+00  9.00000000E+00  8.37500000E-01
      7.00000000E+00  9.00000000E+00  8.27500000E-01
      7.50000000E+00  9.00000000E+00  8.17500000E-01
      8.00000000E+00  9.00000000E+00  8.07500000E-01
      8.50000000E+00  9.00000000E+00  7.97500000E-01
      9.00000000E+00  9.00000000E+00  7.87500000E-01
      9.50000000E+00  9.00000000E+00  7.77500000E-01
      1.00000000E+01  9.00000000E+00  7.76666667E-01
      0.00000000E+00  8.50000000E+00  9.33333333E-01
      5.00000000E-01  8.50000000E+00  9.32500000E-01
      1.00000000E+00  8.50000000E+00  9.22500000E-01
      1.50000000E+00  8.50000000E+00  9.12500000E-01
      2.00000000E+00  8.50000000E+00  9.02500000E-01
      2.50000000E+00  8.50000000E+00  8.92500000E-01
      3.00000000E+00  8.50000000E+00  8.82500000E-01
      3.50000000E+00  8.50000000E+00  8.72500000E-01
      4.00000000E+00  8.50000000E+00  8.62500000E-01
      4.50000000E+00  8.50000000E+00  8.52500000E-01
      5.00000000E+00  8.50000000E+00  8.42500000E-01
      5.50000000E+00  8.50000000E+00  8.32500000E-01
      6.00000000E+00  8.50000000E+00  8.22500000E-01
      6.50000000E+00  8.50000000E+00  8.12500000E-01
      7.00000000E+00  8.50000000E+00  8.02500000E-01
      7.50000000E+00  8.50000000E+00  7.92500000E-01
      8.00000000E+00  8.50000000E+00  7.82500000E-01
      8.50000000E+00  8.50000000E+00  7.72500000E-01
      9.00000000E+00  8.50000000E+00  7.62500000E-01
      9.50000000E+00  8.50000000E+00  7.52500000E-01
      1.00000000E+01  8.50000000E+00  7.51666667E-01
      0.00000000E+00  8.00000000E+00  9.08333333E-01
      5.00000000E-01  8.00000000E+00  9.07500000E-01
      1.00000000E+00  8.00000000E+00  8.97500000E-01
      1.50000000E+00  8.00000000E+00  8.87500000E-01
      2.00000000E+00  8.00000000E+00  8.77500000E-01
      2.50000000E+00  8.00000000E+00  8.67500000E-01
      3.00000000E+00  8.00000000E+00  8.57500000E-01
      3.50000000E+00  8.00000000E+00  8.47500000E-01
      4.00000000E+00  8.00000000E+00  8.37500000E-01
      4.50000000E+00  8.00000000E+00  8.27500000E-01
      5.00000000E+00  8.00000000E+00  8.17500000E-01
      5.50000000E+00  8.00000000E+00  8.07500000E-01
      6.00000000E+00  8.00000000E+00  7.97500000E-01
      6.50000000E+00  8.00000000E+00  7.87500000E-01
      7.00000000E+00  8.00000000E+00  7.77500000E-01
      7.50000000E+00  8.00000000E+00  7.67500000E-01
      8.00000000E+00  8.00000000E+00  7.57500000E-01
      8.50000000E+00  8.00000000E+00  7.47500000E-01
      9.00000000E+00  8.00000000E+00  7.37500000E-01
      9.50000000E+00  8.00000000E+00  7.27500000E-01
      1.00000000E+01  8.00000000E+00  7.26666667E-01
      0.00000000E+00  7.50000000E+00  8.83333333E-01
      5.00000000E-01  7.50000000E+00  8.82500000E-01
      1.00000000E+00  7.50000000E+00  8.72500000E-01
      1.50000000E+00  7.50000000E+00  8.62500000E-01
      2.00000000E+00  7.50000000E+00  8.52500000E-01
      2.50000000E+00  7.50000000E+00  8.42500000E-01
      3.00000000E+00  7.50000000E+00  8.32500000E-01
      3.50000000E+00  7.50000000E+00  8.22500000E-01
      4.00000000E+00  7.50000000E+00  8.12500000E-01
      4.50000000E+00  7.50000000E+00  8.02500000E-01
      5.00000000E+00  7.50000000E+00  7.92500000E-01
      5.50000000E+00  7.50000000E+00  7.82500000E-01
      6.00000000E+00  7.50000000E+00  7.72500000E-01
      6.50000000E+00  7.50000000E+00  7.62500000E-01
      7.00000000E+00  7.50000000E+00  7.52500000E-01
      7.50000000E+00  7.50000000E+00  7.42500000E-01
      8.00000000E+00  7.50000000E+00  7.32500000E-01
      8.50000000E+00  7.50000000E+00  7.22500000E-01
      9.00000000E+00  7.50000000E+00  7.12500000E-01
      9.50000000E+00  7.50000000E+00  7.02500000E-01
      1.00000000E+01  7.50000000E+00  7.01666667E-01
      0.00000000E+00  7.00000000E+00  8.58333333E-01
      5.00000000E-01  7.00000000E+00  8.57500000E-01
      1.00000000E+00  7.00000000E+00  8.47500000E-01
      1.50000000E+00  7.00000000E+00  8.37500000E-01
      2.00000000E+00  7.00000000E+00  8.27500000E-01
      2.50000000E+00  7.00000000E+00  8.17500000E-01
      3.00000000E+00  7.00000000E+00  8.07500000E-01
      3.50000000E+00  7.00000000E+00  7.97500000E-01
      4.00000000E+00  7.00000000E+00  7.87500000E-01
      4.50000000E+00  7.00000000E+00  7.77500000E-01
      5.00000000E+00  7.00000000E+00  7.67500000E-01
      5.50000000E+00  7.00000000E+00  7.57500000E-01
      6.00000000E+00  7.00000000E+00  7.47500000E-01
      6.50000000E+00  7.00000000E+00  7.37500000E-01
      7.00000000E+00  7.00000000E+00  7.27500000E-01
      7.50000000E+00  7.00000000E+00  7.17500000E-01
      8.00000000E+00  7.00000000E+00  7.07500000E-01
      8.50000000E+00  7.00000000E+00  6.97500000E-01
      9.00000000E+00  7.00000000E+00  6.87500000E-01
      9.50000000E+00  7.00000000E+00  6.77500000E-01
      1.00000000E+01  7.00000000E+00  6.76666667E-01
      0.00000000E+00  6.50000000E+00  8.33333333E-01
      5.00000000E-01  6.50000000E+00  8.32500000E-01
      1.00000000E+00  6.50000000E+00  8.22500000E-01
      1.50000000E+00  6.50000000E+00  8.12500000E-01
      2.00000000E+00  6.50000000E+00  8.02500000E-01
      2.50000000E+00  6.50000000E+00  7.92500000E-01
      3.00000000E+00  6.50000000E+00  7.82500000E-01
      3.50000000E+00  6.50000000E+00  7.72500000E-01
      4.00000000E+00  6.50000000E+00  7.62500000E-01
      4.50000000E+00  6.50000000E+00  7.52500000E-01
      5.00000000E+00  6.50000000E+00  7.42500000E-01
      5.50000000E+00  6.50000000E+00  7.32500000E-01
      6.00000000E+00  6.50000000E+00  7.22500000E-01
      6.50000000E+00  6.50000000E+00  7.12500000E-01
      7.00000000E+00  6.50000000E+00  7.02500000E-01
      7.50000000E+00  6.50000000E+00  6.92500000E-01
      8.00000000E+00  6.50000000E+00  6.82500000E-01
      8.50000000E+00  6.50000000E+00  6.72500000E-01
      9.00000000E+00  6.50000000E+00  6.62500000E-01
      9.50000000E+00  6.50000000E+00  6.52500000E-01
      1.00000000E+01  6.50000000E+00  6.51666667E-01
      0.00000000E+00  6.00000000E+00  8.08333333E-01
      5.00000000E-01  6.00000000E+00  8.07500000E-01
      1.00000000E+00  6.00000000E+00  7.97500000E-01
      1.50000000E+00  6.00000000E+00  7.87500000E-01
      2.00000000E+00  6.00000000E+00  7.77500000E-01
      2.50000000E+00  6.00000000E+00  7.67500000E-01
      3.00000000E+00  6.00000000E+00  7.57500000E-01
      3.50000000E+00  6.00000000E+00  7.47500000E-01
      4.00000000E+00  6.00000000E+00  7.37500000E-01
      4.50000000E+00  6.00000000E+00  7.27500000E-01
      5.00000000E+00  6.00000000E+00  7.17500000E-01
      5.50000000E+00  6.00000000E+00  7.07500000E-01
      6.00000000E+00  6.00000000E+00  6.97500000E-01
      6.50000000E+00  6.00000000E+00  6.87500000E-01
      7.00000000E+00  6.00000000E+00  6.77500000E-01
      7.50000000E+00  6.00000000E+00  6.67500000E-01
      8.00000000E+00  6.00000000E+00  6.57500000E-01
[...]
POINT_DATA     7056
SCALARS pressure float
LOOKUP_TABLE default
 -0.15284334664059626     
 -0.15207974277450928     
 -0.15184562705814569     
 -0.15172072233789669     
 -0.15159291681977582     
 -0.15146612341906629     
 -0.15136071837687709     
 -0.15121498317680768     
 -0.15109658146003180     
 -0.15093573811810823     
 -0.15076488134424279     
 -0.15056721715929480     
 -0.15030746840689105     
 -0.14998799974207896     
 -0.14956137953640014     
 -0.14900012762893433     
 -0.14824041071433458     
 -0.14717885217295651     
 -0.14605647720023393     
 -0.14266354970968037     
 -0.14182333163033917     
 -0.15141917839533570     
 -0.15096815636969271     
 -0.14983127920979300     
 -0.14995959901475506     
 -0.14985381518231250     
 -0.14975684806283349     
 -0.14964264700741708     
 -0.14951325899678974     
 -0.14937186590701593     
 -0.14919091772341619     
 -0.14898270190567023     
 -0.14871734606472914     
 -0.14838378486059736     
 -0.14794877841046083     
 -0.14738431160605814     
 -0.14663489330368606     
 -0.14564187044690016     
 -0.14431427404473543     
 -0.14272160987924903     
 -0.13918342734807676     
 -0.13909187008082016     
 -0.15055061991830798     
 -0.14968252345020158     
 -0.14816693009615836     
 -0.14822117757663089     
 -0.14786935440676358     
 -0.14756118467494622     
 -0.14724319629392410     
 -0.14689588929989467     
 -0.14651597092469321     
 -0.14609304134469844     
 -0.14560420431898052     
 -0.14502870241630630     
 -0.14433562790626617     
 -0.14348507203454586     
 -0.14243870541166659     
 -0.14112425946425652     
 -0.13947038356133198     
 -0.13738371845006919     
 -0.13492373896139176     
 -0.13065761024388031     
 -0.13003483336479277     
 -0.14971733127432846     
 -0.14925886122151819     
 -0.14752028156409408     
 -0.14736229331450854     
 -0.14680767837938216     
 -0.14626699802317722     
 -0.14569333362223219     
 -0.14507973265875881     
 -0.14440745404933022     
 -0.14365220647471422     
 -0.14279425462733006     
 -0.14180775884908370     
 -0.14064510413015568     
 -0.13926235284443134     
 -0.13760147601693654     
 -0.13560167391709504     
 -0.13321421794788130     
 -0.13039287082878429     
 -0.12715528968620815     
 -0.12227799807511537     
 -0.12184798545495752     
 -0.14866564857618469     
 -0.14836630099636122     
 -0.14626212043458722     
 -0.14580438006226298     
 -0.14497096561857503     
 -0.14413299977381153     
 -0.14324247024318237     
 -0.14228165965877221     
 -0.14123474922301088     
 -0.14007520329781889     
 -0.13877528511197768     
 -0.13729662206023796     
 -0.13559246209318759     
 -0.13362709312539134     
 -0.13136564494938363     
 -0.12875420596124257     
 -0.12572969749716542     
 -0.12222787155603672     
 -0.11822878396973137     
 -0.11269454136322106     
 -0.11224874262324391     
 -0.14729633009756490     
 -0.14707947347151343     
 -0.14461873897360381     
 -0.14377678181630815     
 -0.14258710508884917     
 -0.14136327331003387     
 -0.14006671377278632     
 -0.13867565904804766     
 -0.13717126237385910     
 -0.13552333302367461     
 -0.13370575424190947     
 -0.13169999653843129     
 -0.12946719370783100     
 -0.12695692509968984     
 -0.12411286690199098     
 -0.12087518235621247     
 -0.11717520978977221     
 -0.11292182001976471     
 -0.10795421639231916     
 -0.10141007731213415     
 -0.10090059028172917     
 -0.14545513344711658     
 -0.14527663030727292     
 -0.14241364371262932     
 -0.14109807679946179     
 -0.13946342519526544     
 -0.13777138735453034     
 -0.13598521187717774     
 -0.13408948421553102     
 -0.13208000511922224     
 -0.12993850098589629     
 -0.12762904014398949     
 -0.12510871403449073     
 -0.12233100410129663     
 -0.11924049384959126     
 -0.11577118873567158     
 -0.11182910892767331     
 -0.10723228591320308     
 -0.10194422679407963     
  -9.6072420611688955E-002
  -8.9052694604966245E-002
  -8.8516300287492994E-002
 -0.14296554228344374     
 -0.14281525652968338     
 -0.13947861834905861     
 -0.13759020567175909     
 -0.13542383002777253     
 -0.13319350130713414     
 -0.13089191801068076     
 -0.12850475293612534     
 -0.12600175184841647     
 -0.12334983550847463     
 -0.12051031401425533     
 -0.11743371199140148     
 -0.11405865844492918     
 -0.11027962769528021     
 -0.10593906701041166     
 -0.10109764942570408     
  -9.5772746069628309E-002
  -8.9941807552392700E-002
  -8.3246131410059765E-002
  -7.5239495805812712E-002
  -7.4636250543395094E-002
 -0.13959768191718194     
 -0.13949060226282750     
 -0.13560104259248787     
 -0.13306933595831574     
 -0.13035596168644675     
 -0.12760191492982073     
 -0.12477797140202895     
 -0.12185952485881345     
 -0.11881485914942420     
 -0.11560165541863819     
 -0.11215724346493382     
 -0.10835996539390920     
 -0.10414600411257517     
  -9.9604697621197877E-002
  -9.4701809244707599E-002
  -8.9414985381731940E-002
  -8.3390162725162587E-002
  -7.6611756663093722E-002
  -6.9256731127012056E-002
  -6.1241547028770570E-002
  -6.0754312019963556E-002
 -0.13511693214843459     
 -0.13506351252285681     
 -0.13063797339519628     
 -0.12748076055058002     
 -0.12419097410516583     
 -0.12085885850527352     
 -0.11745267926251038     
 -0.11393693149938998     
 -0.11023328911871223     
 -0.10623026471403282     
 -0.10200477231022596     
  -9.7581596529860135E-002
  -9.2937078504151463E-002
  -8.8020923931534309E-002
  -8.2439352942086583E-002
  -7.6362336380448925E-002
  -6.9844965671198980E-002
  -6.2952419428664613E-002
  -5.5463035367531249E-002
  -4.6885266985376560E-002
  -4.6340068237111356E-002
 -0.12949178254176943     
 -0.12942380472171020     
 -0.12447643577878847     
 -0.12062702443154485     
 -0.11668667456721775     
 -0.11268598850008854     
 -0.10851785649707175     
 -0.10415315162567595     
  -9.9724608501800788E-002
  -9.5219922301413670E-002
  -9.0637900184196513E-002
  -8.5808722628655770E-002
  -8.0482826047272360E-002
  -7.4916331463962316E-002
  -6.9054005407431160E-002
  -6.2966051097513798E-002
  -5.6493632978650961E-002
  -4.9231011734745020E-002
  -4.1424342338702319E-002
  -3.3124265391306633E-002
  -3.2735221845286537E-002
 -0.12252762012744586     
 -0.12234680363351254     
 -0.11682759978732209     
 -0.11217708475199407     
 -0.10733609120973385     
 -0.10242857765706276     
  -9.7571935237325214E-002
  -9.2777202808599357E-002
  -8.8006047965771952E-002
  -8.2917951953238117E-002
  -7.7702277462926531E-002
  -7.2404741533959344E-002
  -6.6985100862947844E-002
  -6.1544380314511607E-002
  -5.5732908194679798E-002
  -4.9415546335483215E-002
  -4.2708030052415025E-002
  -3.5836635116463171E-002
  -2.8119404599797421E-002
  -1.9899086095112244E-002
  -1.9634862045812398E-002
 -0.11380971166735752     
 -0.11350739450547341     
 -0.10712059166113116     
 -0.10143168779765364     
  -9.5891710869667107E-002
  -9.0555455539617219E-002
  -8.5224410562476927E-002
  -7.9750023027388012E-002
  -7.4384654692858196E-002
  -6.9074851846243845E-002
  -6.3894440710109038E-002
  -5.8839343567822881E-002
  -5.3332695803856675E-002
  -4.7681528613614889E-002
  -4.1866962313580024E-002
  -3.5999063864334858E-002
  -2.9490191570601114E-002
  -2.2634425128343159E-002
  -1.5116120866910328E-002
  -7.9297918573562384E-003
  -8.0380897333876163E-003
 -0.10253172083915275     
 -0.10212366544457072     
  -9.5144534194846447E-002
  -8.8954891492113247E-002
  -8.2722700449437234E-002
  -7.6649699227902643E-002
  -7.0833435375325798E-002
  -6.5315861525714378E-002
  -6.0171766160704264E-002
  -5.4862173656954012E-002
  -4.9565065639317465E-002
  -4.4317469339882315E-002
  -3.9114814815309429E-002
  -3.3907165273358922E-002
  -2.8389220437702926E-002
  -2.2630856465670590E-002
  -1.6244866341883473E-002
  -9.9811827935468601E-003
   1.0381737747733784E-003
   1.5345336037052924E-003
   8.8467932989754372E-004
  -8.9319017338094178E-002
  -8.8874486025276547E-002
  -8.1148106572612469E-002
  -7.4096832441867183E-002
  -6.7521477360952500E-002
  -6.1524474595295961E-002
  -5.5768886986972417E-002
  -5.0171962157378770E-002
  -4.4834786785803868E-002
  -3.9730015321538560E-002
  -3.4837429362149459E-002
  -2.9963806654541389E-002
  -2.5106949430793946E-002
  -2.0010655696495371E-002
  -1.4932399061883272E-002
  -9.7121568911279470E-003
   3.2040105255710309E-004
   1.4659843730223750E-003
   3.8353416768583445E-003
   4.6694288007879912E-003
   3.4315398791820895E-003
  -7.3414569110354835E-002
  -7.2959288502286126E-002
  -6.5002684020715296E-002
  -5.8034575079823895E-002
  -5.1321339415601033E-002
  -4.5109132872121253E-002
  -3.9412182992574991E-002
  -3.4337799883011666E-002
  -2.9407120609674976E-002
  -2.4567261192320788E-002
  -1.9457533057228676E-002
  -1.5386038314987950E-002
  -1.1316767751607828E-002
  -5.3469074535921314E-003
   6.1845373598277693E-004
   1.6857758343292862E-003
   2.9704053985427858E-003
   4.6058773072580753E-003
   7.4561277767590962E-003
   7.3916042213611963E-003
   5.3176432074837215E-003
  -5.6109213415419162E-002
  -5.5667020503580057E-002
  -4.7264346168768068E-002
  -4.0174134985677935E-002
  -3.3987735787782518E-002
  -2.8077577314859305E-002
  -2.2191911898453352E-002
  -1.7855555002391613E-002
  -1.3857023488166685E-002
  -9.4880613213211163E-003
   1.4245764327729799E-004
   1.0205284500635205E-003
   1.9038627246201773E-003
   2.7403296297427134E-003
   3.8355967045072808E-003
   5.4181261650302955E-003
   7.0546206716179411E-003
   8.4380765992924968E-003
   1.0959098175498122E-002
   9.7574744620748510E-003
   6.7136837127258833E-003
  -3.6814059418650118E-002
  -3.6354034428712934E-002
  -2.7401200553188679E-002
  -2.1100890806909293E-002
  -1.5888497054591683E-002
  -1.0550146511973290E-002
   7.0823696075279525E-005
   9.6312366992263915E-004
   1.8485798919721534E-003
   2.6256936022576011E-003
   3.4794537186411505E-003
   4.6470791032550210E-003
   5.9398004779746896E-003
   7.1717973189699196E-003
   8.3402568102067670E-003
   9.4747562054030947E-003
   1.0777516750915169E-002
   1.1937660000532634E-002
   1.4321660881164065E-002
   1.2074610677346340E-002
   7.8589089000347164E-003
  -1.6191846118381689E-002
  -1.5310049200180158E-002
   2.6096390838288824E-004
   1.8005318438696800E-003
   3.2121690008091080E-003
   4.3372464549867639E-003
   5.3969014370733410E-003
   6.6594195143720456E-003
   8.0411912487945627E-003
   9.2733512751521363E-003
   1.0381420298411485E-002
   1.1352413846941682E-002
   1.2263397349483318E-002
   1.3190446505411419E-002
   1.4158946114589689E-002
   1.5132829727981766E-002
   1.6181246612992688E-002
   1.7103875994799511E-002
   1.8938234626133317E-002
   1.4820378455859205E-002
   9.2228634103040386E-003
   5.5432415397347386E-003
   5.4432708353850051E-003
   7.2252890846363450E-003
   8.6464745326372081E-003
   9.9235543006812553E-003
   1.0802318887618952E-002
   1.1463368717389486E-002
   1.1935390649787797E-002
   1.2320074365528629E-002
   1.2709192387971958E-002
   1.3123320259458650E-002
   1.3569077293578095E-002
   1.4049146130231286E-002
   1.4568817274544552E-002
   1.5135854382833951E-002
   1.5730948090935962E-002
   1.6343915791335772E-002
   1.6968329146953239E-002
   1.7936976263808337E-002
   1.7018067458882114E-002
   1.1951906003697959E-002
   8.4771605119046394E-003
   9.8100049698599725E-003
   1.3127408926205541E-002
   1.4315691504377838E-002
   1.4030509352315980E-002
   1.3565627164150560E-002
   1.3086013710003598E-002
   1.2676081678593014E-002
   1.2352177096659733E-002
   1.2116707325503450E-002
   1.1965497523387296E-002
   1.1894556395885415E-002
   1.1902310478056047E-002
   1.1987433220258612E-002
   1.2148060372057436E-002
   1.2386104442394762E-002
   1.2712310040662124E-002
   1.3147514569522095E-002
   1.3780539782613762E-002
   1.4586568208773291E-002
   1.5065880844430318E-002
 -0.14701992373191786     
 -0.14631113549981734     
 -0.14607707434229736     
 -0.14595249265309035     
 -0.14582483840318641     
 -0.14569814428030192     
 -0.14559276047781100     
 -0.14544707489106848     
 -0.14532862356653317     
 -0.14516775377191563     
 -0.14499681504230935     
 -0.14479900626355577     
 -0.14453906785388634     
 -0.14421923240775286     
 -0.14379206017590151     
 -0.14322994322412227     
 -0.14246898540791514     
 -0.14140585898874225     
 -0.14028040374394934     
 -0.13688507925028032     
 -0.13614490627639578     
 -0.14565789970930859     
 -0.14531197819005059     
 -0.14417351956489766     
 -0.14430245595629015     
 -0.14419692198129969     
 -0.14410015349884278     
 -0.14398617863469160     
 -0.14385700130460122     
 -0.14371576898766547     
 -0.14353496361757972     
 -0.14332674408813936     
 -0.14306119905060929     
 -0.14272711065523813     
 -0.14229117341263109     
 -0.14172524236055808     
 -0.14097375067343035     
 -0.13997789866420884     
 -0.13864684841706401     
 -0.13704946652947320     
 -0.13350678935636232     
 -0.13350675131011791     
 -0.14479252442553628     
 -0.14403107027598747     
 -0.14251435098695986     
 -0.14256928257890200     
 -0.14221788044909964     
 -0.14190999028404483     
 -0.14159224774923129     
 -0.14124509886485118     
 -0.14086515166896155     
 -0.14044191754132457     
 -0.13995244630790982     
 -0.13937590121948526     
 -0.13868126264874603     
 -0.13782853359100916     
 -0.13677926547977926     
 -0.13546115320844915     
 -0.13380263252643712     
 -0.13170996091751183     
 -0.12924037504673877     
 -0.12496297241595292     
 -0.12443020237801170     
 -0.14395966402640176     
 -0.14360866470374456     
 -0.14186930212939158     
 -0.14171214754481642     
 -0.14115807357771779     
 -0.14061764593511245     
 -0.14004397142974209     
 -0.13942999259304664     
 -0.13875691376357335     
 -0.13800038667189848     
 -0.13714053765319748     
 -0.13615147465743344     
 -0.13498552471048855     
 -0.13359861277131097     
 -0.13193235337373030     
 -0.12992503780052089     
 -0.12752685871328984     
 -0.12469337140452633     
 -0.12144229372915424     
 -0.11655388721062802     
 -0.11620954075717210     
 -0.14290822135377673     
 -0.14271732694843298     
 -0.14061236535119709     
 -0.14015522962958574     
 -0.13932201695488794     
 -0.13848364810118866     
 -0.13759218644578122     
 -0.13662982859058478     
 -0.13558067541648935     
 -0.13441820113615727     
 -0.13311455918928863     
 -0.13163110999240674     
 -0.12992049974386050     
 -0.12794601467653507     
 -0.12567336738859025     
 -0.12305004439148740     
 -0.12001281241680294     
 -0.11649747533919327     
 -0.11248358598579213     
 -0.10694051498754759     
 -0.10657403780550863     
 -0.14153908476870500     
 -0.14143111116450921     
 -0.13896897583101692     
 -0.13812685819257756     
 -0.13693631043594670     
 -0.13571071063587706     
 -0.13441161422272407     
 -0.13301725279886464     
 -0.13150853287524505     
 -0.12985484163597474     
 -0.12802919798215279     
 -0.12601315475757302     
 -0.12376933544626524     
 -0.12124735218100680     
 -0.11839075799290996     
 -0.11513987563104031     
 -0.11142633866265832     
 -0.10716070138905598     
 -0.10218475755924016     
  -9.5627777596238431E-002
  -9.5189315019259008E-002
 -0.13969736753489925     
 -0.13962629449729064     
 -0.13676133816987887     
 -0.13544402846354972     
 -0.13380675817595705     
 -0.13211098825728237     
 -0.13031975839034352     
 -0.12841689159697370     
 -0.12639776633555358     
 -0.12424562541083135     
 -0.12192504304353634     
 -0.11939294440677559     
 -0.11660285823284958     
 -0.11349950806094571     
 -0.11001729468862727     
 -0.10606446035927843     
 -0.10145988837883413     
  -9.6152597984350455E-002
  -9.0258382213906821E-002
  -8.3223995805918410E-002
  -8.2745171834616923E-002
 -0.13720526005793621     
 -0.13715887963755893     
 -0.13381973821962254     
 -0.13192720437521943     
 -0.12975511021151317     
 -0.12751620074090048     
 -0.12520398723482434     
 -0.12280578024319883     
 -0.12029127762444611     
 -0.11762737211256723     
 -0.11477548180029080     
 -0.11168632503554282     
 -0.10829938133293975     
 -0.10451159169655785     
 -0.10016087546941646     
  -9.5300414672417441E-002
  -8.9955068526228754E-002
  -8.4103005433418490E-002
  -7.7397328874025201E-002
  -6.9375165132807184E-002
  -6.8817046626009626E-002
 -0.13383141061161621     
 -0.13382347522206930     
 -0.12992910616108971     
 -0.12738736727302172     
 -0.12466265112587503     
 -0.12189690788192890     
 -0.11906088421828585     
 -0.11613006044840139     
 -0.11307290314559772     
 -0.10984744491727887     
 -0.10639274941694662     
 -0.10258826395884588     
  -9.8359531302468786E-002
  -9.3800003645884422E-002
  -8.8877471418017467E-002
  -8.3571754297487075E-002
  -7.7538358111455777E-002
  -7.0738967180034723E-002
  -6.3362217843607169E-002
  -5.5328979013712754E-002
  -5.4869798607670869E-002
 -0.12933672302965687     
 -0.12937624317230625     
 -0.12494008326836056     
 -0.12176986227278046     
 -0.11846729875576545     
 -0.11512220937753621     
 -0.11170325402635428     
 -0.10817579032363028     
 -0.10446383683461519     
 -0.10045124707428099     
  -9.6208510833586461E-002
  -9.1767581697736716E-002
  -8.7103909135997651E-002
  -8.2172739533011518E-002
  -7.6581194481503578E-002
  -7.0485578854341341E-002
  -6.3949774950747579E-002
  -5.7035857070583416E-002
  -4.9534878845532440E-002
  -4.0946762824167218E-002
  -4.0421622752122577E-002
 -0.12368854265454707     
 -0.12370600118749736     
 -0.11874659594848465     
 -0.11488304111486639     
 -0.11092941886549675     
 -0.10691767642078308     
 -0.10274257026353029     
  -9.8363200127177614E-002
  -9.3917255518350645E-002
  -8.9394201402451856E-002
  -8.4794340209657273E-002
  -7.9958120113454947E-002
  -7.4616173858589749E-002
  -6.9032344965081593E-002
  -6.3153393496338389E-002
  -5.7046917789025806E-002
  -5.0565668840557722E-002
  -4.3288471918333897E-002
  -3.5466696856266439E-002
  -2.7159526587787031E-002
  -2.6781565718234930E-002
 -0.11669881042516173     
 -0.11659368607137444     
 -0.11106236856322532     
 -0.10640065716033976     
 -0.10155207390469251     
  -9.6627097756497429E-002
  -9.1752437387554425E-002
  -8.6938825648582838E-002
  -8.2153699078358414E-002
  -7.7056659978574693E-002
  -7.1824710795878877E-002
  -6.6511891508001408E-002
  -6.1075451781601231E-002
  -5.5617820819106469E-002
  -4.9799522928531112E-002
  -4.3470155839335743E-002
  -3.6750888915903342E-002
  -2.9868833190539852E-002
  -2.2142607351939934E-002
  -1.3917120669795708E-002
  -1.3656492670204967E-002
 -0.10795574570891246     
 -0.10771880124544003     
 -0.10132617567619701     
  -9.5618600678548632E-002
  -9.0059355527407722E-002
  -8.4704477169840073E-002
  -7.9367072186218093E-002
  -7.3875904192500619E-002
  -6.8494559549350631E-002
  -6.3169316367956835E-002
  -5.7973053316012685E-002
  -5.2909765630570739E-002
  -4.7391888818867300E-002
  -4.1730420556237463E-002
  -3.5905824408825886E-002
  -3.0028260395470924E-002
  -2.3512778983622057E-002
  -1.6646766085070451E-002
  -9.1265935213428115E-003
  -1.9399533474422598E-003
  -2.0483681766139453E-003
  -9.6651675741426510E-002
  -9.6297281930150302E-002
  -8.9300386957442274E-002
  -8.3092479047536513E-002
  -7.6850895806157615E-002
  -7.0761203523148852E-002
  -6.4929484808678883E-002
  -5.9396033411929040E-002
  -5.4237606839743886E-002
  -4.8921996093404974E-002
  -4.3614924599159333E-002
  -3.8358243678590934E-002
  -3.3147425854662751E-002
  -2.7934352094138911E-002
  -2.2409935786697071E-002
  -1.6642397867248228E-002
  -1.0254478816819722E-002
  -3.9919715295331157E-003
   6.8628846403665858E-003
   7.5464024187481384E-003
   6.8861015244894167E-003
  -8.3404162364613690E-002
  -8.2998128862477691E-002
  -7.5262967646086976E-002