# vtk DataFile Version 2.0
3D Unstructured Grid of Linear Triangles
ASCII
DATASET UNSTRUCTURED_GRID
FIELD FieldData  1
TIME 1 1 double
        3600.67512
POINTS     7056 float
      0.00000000E+00  1.00000000E+01  1.00000000E+00
      5.00000000E-01  1.00000000E+01  9.93333333E-01
      1.00000000E+00  1.00000000E+01  9.83333333E-01
      1.50000000E+00  1.00000000E+01  9.73333333E-01
      2.00000000E+00  1.00000000E+01  9.63333333E-01
      2.50000000E+00  1.00000000E+01  9.53333333E-01
      3.00000000E+00  1.00000000E+01  9.43333333E-01
      3.50000000E+00  1.00000000E+01  9.33333333E-01
      4.00000000E+00  1.00000000E+01  9.23333333E-01
      4.50000000E+00  1.00000000E+01  9.13333333E-01
      5.00000000E+00  1.00000000E+01  9.03333333E-01
      5.50000000E+00  1.00000000E+01  8.93333333E-01
      6.00000000E+00  1.00000000E+01  8.83333333E-01
      6.50000000E+00  1.00000000E+01  8.73333333E-01
      7.00000000E+00  1.00000000E+01  8.63333333E-01
      7.50000000E+00  1.00000000E+01  8.53333333E-01
      8.00000000E+00  1.00000000E+01  8.43333333E-01
      8.50000000E+00  1.00000000E+01  8.33333333E-01
      9.00000000E+00  1.00000000E+01  8.23333333E-01
      9.50000000E+00  1.00000000E+01  8.13333333E-01
      1.00000000E+01  1.00000000E+01  8.10000000E-01
      0.00000000E+00  9.50000000E+00  9.83333333E-01
      5.00000000E-01  9.50000000E+00  9.82500000E-01
      1.00000000E+00  9.50000000E+00  9.72500000E-01
      1.50000000E+00  9.50000000E+00  9.62500000E-01
      2.00000000E+00  9.50000000E+00  9.52500000E-01
      2.50000000E+00  9.50000000E+00  9.42500000E-01
      3.00000000E+00  9.50000000E+00  9.32500000E-01
      3.50000000E+00  9.50000000E+00  9.22500000E-01
      4.00000000E+00  9.50000000E+00  9.12500000E-01
      4.50000000E+00  9.50000000E+00  9.02500000E-01
      5.00000000E+00  9.50000000E+00  8.92500000E-01
      5.50000000E+00  9.50000000E+00  8.82500000E-01
      6.00000000E+00  9.50000000E+00  8.72500000E-01
      6.50000000E+00  9.50000000E+00  8.62500000E-01
      7.00000000E+00  9.50000000E+00  8.52500000E-01
      7.50000000E+00  9.50000000E+00  8.42500000E-01
      8.00000000E+00  9.50000000E+00  8.32500000E-01
      8.50000000E+00  9.50000000E+00  8.22500000E-01
      9.00000000E+00  9.50000000E+00  8.12500000E-01
      9.50000000E+00  9.50000000E+00  8.02500000E-01
      1.00000000E+01  9.50000000E+00  8.01666667E-01
      0.00000000E+00  9.00000000E+00  9.58333333E-01
      5.00000000E-01  9.00000000E+00  9.57500000E-01
      1.00000000E+00  9.00000000E+00  9.47500000E-01
      1.50000000E+00  9.00000000E+00  9.37500000E-01
      2.00000000E+00  9.00000000E+00  9.27500000E-01
      2.50000000E+00  9.00000000E+00  9.17500000E-01
      3.00000000E+00  9.00000000E+00  9.07500000E-01
      3.50000000E+00  9.00000000E+00  8.97500000E-01
      4.00000000E+00  9.00000000E+00  8.87500000E-01
      4.50000000E+00  9.00000000E+00  8.77500000E-01
      5.00000000E+00  9.00000000E+00  8.67500000E-01
      5.50000000E+00  9.00000000E+00  8.57500000E-01
      6.00000000E+00  9.00000000E+00  8.47500000E-01
      6.50000000E+00  9.00000000E+00  8.37500000E-01
      7.00000000E+00  9.00000000E+00  8.27500000E-01
      7.50000000E+00  9.00000000E+00  8.17500000E-01
      8.00000000E+00  9.00000000E+00  8.07500000E-01
      8.50000000E+00  9.00000000E+00  7.97500000E-01
      9.00000000E+00  9.00000000E+00  7.87500000E-01
      9.50000000E+00  9.00000000E+00  7.77500000E-01
      1.00000000E+01  9.00000000E+00  7.76666667E-01
      0.00000000E+00  8.50000000E+00  9.33333333E-01
      5.00000000E-01  8.50000000E+00  9.32500000E-01
      1.00000000E+00  8.50000000E+00  9.22500000E-01
      1.50000000E+00  8.50000000E+00  9.12500000E-01
      2.00000000E+00  8.50000000E+00  9.02500000E-01
      2.50000000E+00  8.50000000E+00  8.92500000E-01
      3.00000000E+00  8.50000000E+00  8.82500000E-01
      3.50000000E+00  8.50000000E+00  8.72500000E-01
      4.00000000E+00  8.50000000E+00  8.62500000E-01
      4.50000000E+00  8.50000000E+00  8.52500000E-01
      5.00000000E+00  8.50000000E+00  8.42500000E-01
      5.50000000E+00  8.50000000E+00  8.32500000E-01
      6.00000000E+00  8.50000000E+00  8.22500000E-01
      6.50000000E+00  8.50000000E+00  8.12500000E-01
      7.00000000E+00  8.50000000E+00  8.02500000E-01
      7.50000000E+00  8.50000000E+00  7.92500000E-01
      8.00000000E+00  8.50000000E+00  7.82500000E-01
      8.50000000E+00  8.50000000E+00  7.72500000E-01
      9.00000000E+00  8.50000000E+00  7.62500000E-01
      9.50000000E+00  8.50000000E+00  7.52500000E-01
      1.00000000E+01  8.50000000E+00  7.51666667E-01
      0.00000000E+00  8.00000000E+00  9.08333333E-01
      5.00000000E-01  8.00000000E+00  9.07500000E-01
      1.00000000E+00  8.00000000E+00  8.97500000E-01
      1.50000000E+00  8.00000000E+00  8.87500000E-01
      2.00000000E+00  8.00000000E+00  8.77500000E-01
      2.50000000E+00  8.00000000E+00  8.67500000E-01
      3.00000000E+00  8.00000000E+00  8.57500000E-01
      3.50000000E+00  8.00000000E+00  8.47500000E-01
      4.00000000E+00  8.00000000E+00  8.37500000E-01
      4.50000000E+00  8.00000000E+00  8.27500000E-01
      5.00000000E+00  8.00000000E+00  8.17500000E-01
      5.50000000E+00  8.00000000E+00  8.07500000E-01
      6.00000000E+00  8.00000000E+00  7.97500000E-01
      6.50000000E+00  8.00000000E+00  7.87500000E-01
      7.00000000E+00  8.00000000E+00  7.77500000E-01
      7.50000000E+00  8.00000000E+00  7.67500000E-01
      8.00000000E+00  8.00000000E+00  7.57500000E-01
      8.50000000E+00  8.00000000E+00  7.47500000E-01
      9.00000000E+00  8.00000000E+00  7.37500000E-01
      9.50000000E+00  8.00000000E+00  7.27500000E-01
      1.00000000E+01  8.00000000E+00  7.26666667E-01
      0.00000000E+00  7.50000000E+00  8.83333333E-01
      5.00000000E-01  7.50000000E+00  8.82500000E-01
      1.00000000E+00  7.50000000E+00  8.72500000E-01
      1.50000000E+00  7.50000000E+00  8.62500000E-01
      2.00000000E+00  7.50000000E+00  8.52500000E-01
      2.50000000E+00  7.50000000E+00  8.42500000E-01
      3.00000000E+00  7.50000000E+00  8.32500000E-01
      3.50000000E+00  7.50000000E+00  8.22500000E-01
      4.00000000E+00  7.50000000E+00  8.12500000E-01
      4.50000000E+00  7.50000000E+00  8.02500000E-01
      5.00000000E+00  7.50000000E+00  7.92500000E-01
      5.50000000E+00  7.50000000E+00  7.82500000E-01
      6.00000000E+00  7.50000000E+00  7.72500000E-01
      6.50000000E+00  7.50000000E+00  7.62500000E-01
      7.00000000E+00  7.50000000E+00  7.52500000E-01
      7.50000000E+00  7.50000000E+00  7.42500000E-01
      8.00000000E+00  7.50000000E+00  7.32500000E-01
      8.50000000E+00  7.50000000E+00  7.22500000E-01
      9.00000000E+00  7.50000000E+00  7.12500000E-01
      9.50000000E+00  7.50000000E+00  7.02500000E-01
      1.00000000E+01  7.50000000E+00  7.01666667E-01
      0.00000000E+00  7.00000000E+00  8.58333333E-01
      5.00000000E-01  7.00000000E+00  8.57500000E-01
      1.00000000E+00  7.00000000E+00  8.47500000E-01
      1.50000000E+00  7.00000000E+00  8.37500000E-01
      2.00000000E+00  7.00000000E+00  8.27500000E-01
      2.50000000E+00  7.00000000E+00  8.17500000E-01
      3.00000000E+00  7.00000000E+00  8.07500000E-01
      3.50000000E+00  7.00000000E+00  7.97500000E-01
      4.00000000E+00  7.00000000E+00  7.87500000E-01
      4.50000000E+00  7.00000000E+00  7.77500000E-01
      5.00000000E+00  7.00000000E+00  7.67500000E-01
      5.50000000E+00  7.00000000E+00  7.57500000E-01
      6.00000000E+00  7.00000000E+00  7.47500000E-01
      6.50000000E+00  7.00000000E+00  7.37500000E-01
      7.00000000E+00  7.00000000E+00  7.27500000E-01
      7.50000000E+00  7.00000000E+00  7.17500000E-01
      8.00000000E+00  7.00000000E+00  7.07500000E-01
      8.50000000E+00  7.00000000E+00  6.97500000E-01
      9.00000000E+00  7.00000000E+00  6.87500000E-01
      9.50000000E+00  7.00000000E+00  6.77500000E-01
      1.00000000E+01  7.00000000E+00  6.76666667E-01
      0.00000000E+00  6.50000000E+00  8.33333333E-01
      5.00000000E-01  6.50000000E+00  8.32500000E-01
      1.00000000E+00  6.50000000E+00  8.22500000E-01
      1.50000000E+00  6.50000000E+00  8.12500000E-01
      2.00000000E+00  6.50000000E+00  8.02500000E-01
      2.50000000E+00  6.50000000E+00  7.92500000E-01
      3.00000000E+00  6.50000000E+00  7.82500000E-01
      3.50000000E+00  6.50000000E+00  7.72500000E-01
      4.00000000E+00  6.50000000E+00  7.62500000E-01
      4.50000000E+00  6.50000000E+00  7.52500000E-01
      5.00000000E+00  6.50000000E+00  7.42500000E-01
      5.50000000E+00  6.50000000E+00  7.32500000E-01
      6.00000000E+00  6.50000000E+00  7.22500000E-01
      6.50000000E+00  6.50000000E+00  7.12500000E-01
      7.00000000E+00  6.50000000E+00  7.02500000E-01
      7.50000000E+00  6.50000000E+00  6.92500000E-01
      8.00000000E+00  6.50000000E+00  6.82500000E-01
      8.50000000E+00  6.50000000E+00  6.72500000E-01
      9.00000000E+00  6.50000000E+00  6.62500000E-01
      9.50000000E+00  6.50000000E+00  6.52500000E-01
      1.00000000E+01  6.50000000E+00  6.51666667E-01
      0.00000000E+00  6.00000000E+00  8.08333333E-01
      5.00000000E-01  6.00000000E+00  8.07500000E-01
      1.00000000E+00  6.00000000E+00  7.97500000E-01
      1.50000000E+00  6.00000000E+00  7.87500000E-01
      2.00000000E+00  6.00000000E+00  7.77500000E-01
      2.50000000E+00  6.00000000E+00  7.67500000E-01
      3.00000000E+00  6.00000000E+00  7.57500000E-01
      3.50000000E+00  6.00000000E+00  7.47500000E-01
      4.00000000E+00  6.00000000E+00  7.37500000E-01
      4.50000000E+00  6.00000000E+00  7.27500000E-01
      5.00000000E+00  6.00000000E+00  7.17500000E-01
      5.50000000E+00  6.00000000E+00  7.07500000E-01
      6.00000000E+00  6.00000000E+00  6.97500000E-01
      6.50000000E+00  6.00000000E+00  6.87500000E-01
      7.00000000E+00  6.00000000E+00  6.77500000E-01
      7.50000000E+00  6.00000000E+00  6.67500000E-01
      8.00000000E+00  6.00000000E+00  6.57500000E-01
[...]
POINT_DATA     7056
SCALARS pressure float
LOOKUP_TABLE default
 -0.13721313931297111     
 -0.13635166778710572     
 -0.13607367987908398     
 -0.13591889581015368     
 -0.13574239439747621     
 -0.13559185180950312     
 -0.13541656680254247     
 -0.13524795974601631     
 -0.13506884746247730     
 -0.13487026369706948     
 -0.13465315428942448     
 -0.13439294361908408     
 -0.13408471841452424     
 -0.13369954471375367     
 -0.13321084817781859     
 -0.13257711048152934     
 -0.13173407415669486     
 -0.13058030095319212     
 -0.12927863577116536     
 -0.12584865159216499     
 -0.12525328824153550     
 -0.13570380784013461     
 -0.13519920763213716     
 -0.13407480341984501     
 -0.13411244790899138     
 -0.13394673294459333     
 -0.13376919299826254     
 -0.13359603950955454     
 -0.13340395851384892     
 -0.13319906143474242     
 -0.13296083945894735     
 -0.13268998614186214     
 -0.13236882556901050     
 -0.13198159064568776     
 -0.13149911723327731     
 -0.13088277736666903     
 -0.13008851216518955     
 -0.12903963534801410     
 -0.12764769702394962     
 -0.12594999347095123     
 -0.12241882963426705     
 -0.12257235034373584     
 -0.13459456362742556     
 -0.13372323752777182     
 -0.13216486263434712     
 -0.13205680069411990     
 -0.13161075074219350     
 -0.13119990041164378     
 -0.13078185427756897     
 -0.13034379385553357     
 -0.12988121561379767     
 -0.12938221236682043     
 -0.12882415441595485     
 -0.12818975398249324     
 -0.12744805315099939     
 -0.12656292073893335     
 -0.12549099244279815     
 -0.12417733042949684     
 -0.12255435126006164     
 -0.12052591793516347     
 -0.11808180243740614     
 -0.11387133306759019     
 -0.11339811225716222     
 -0.13352455137750202     
 -0.13301311056417883     
 -0.13116215309321980     
 -0.13078555267400099     
 -0.13008235869386300     
 -0.12940539265562570     
 -0.12871081063165407     
 -0.12799043656929893     
 -0.12722832261615954     
 -0.12640576584324009     
 -0.12550332258742466     
 -0.12449456860984791     
 -0.12334727862405929     
 -0.12202141686189220     
 -0.12045812827365356     
 -0.11858723360816291     
 -0.11632541672319031     
 -0.11357173990168931     
 -0.11026598014138267     
 -0.10521576002972859     
 -0.10480432219573975     
 -0.13212969315460354     
 -0.13178885089693598     
 -0.12954490277801295     
 -0.12882852294107069     
 -0.12782534248240290     
 -0.12683586083205961     
 -0.12582169923107167     
 -0.12477278398793978     
 -0.12367164974370781     
 -0.12250464851743453     
 -0.12124299585325383     
 -0.11985043646270908     
 -0.11827937350446878     
 -0.11647600436430394     
 -0.11437200636392637     
 -0.11188327684656699     
 -0.10890163927584440     
 -0.10526908157796851     
 -0.10088279594268360     
  -9.4983332313961069E-002
  -9.4545402036634460E-002
 -0.13037064857094743     
 -0.13018984229692684     
 -0.12754477272460413     
 -0.12643396196047213     
 -0.12507598633796704     
 -0.12372678594058027     
 -0.12235707536376186     
 -0.12095515905955155     
 -0.11949593548582910     
 -0.11794818503156609     
 -0.11627500610008619     
 -0.11443163898925816     
 -0.11236114612943107     
 -0.10999050760202103     
 -0.10722105463967038     
 -0.10391814770256100     
 -0.10001910364073800     
  -9.5549776923305435E-002
  -9.0446877753541224E-002
  -8.3845414130338372E-002
  -8.3343597366817068E-002
 -0.12815723379969887     
 -0.12813744836421151     
 -0.12506070202298780     
 -0.12351050741598567     
 -0.12177156610730065     
 -0.12004384019123426     
 -0.11829215694495469     
 -0.11649006336677614     
 -0.11460841041229805     
 -0.11260971538235778     
 -0.11044386460801023     
 -0.10804658519994886     
 -0.10532625680433527     
 -0.10219199046452523     
  -9.8655863508420136E-002
  -9.4687869270564190E-002
  -9.0210399853880283E-002
  -8.5039253210954027E-002
  -7.8744157795573075E-002
  -7.1236141743708528E-002
  -7.0721920125208462E-002
 -0.12541630271498105     
 -0.12553812541993584     
 -0.12203495976169033     
 -0.12002818067707326     
 -0.11786761114521632     
 -0.11570103233536701     
 -0.11349407434991182     
 -0.11121346861475837     
 -0.10881442289986808     
 -0.10623556363529806     
 -0.10340221013436481     
 -0.10030041691758548     
  -9.6951797319107177E-002
  -9.3296488503825617E-002
  -8.9268688212006966E-002
  -8.4671006359783987E-002
  -7.9189161125380561E-002
  -7.3105947715770628E-002
  -6.6394320218817166E-002
  -5.8957714320018485E-002
  -5.8529293911687152E-002
 -0.12212514383243103     
 -0.12231967150454812     
 -0.11839909703235164     
 -0.11586128528110953     
 -0.11319530472693264     
 -0.11049733213025310     
 -0.10771839660765041     
 -0.10479758112160020     
 -0.10169770741530045     
  -9.8476966573662617E-002
  -9.5120810108242498E-002
  -9.1579886669030872E-002
  -8.7784325033376159E-002
  -8.3484016648181045E-002
  -7.8582307624306985E-002
  -7.3270502059637435E-002
  -6.7488990841826038E-002
  -6.1328496886058848E-002
  -5.4169339119944919E-002
  -4.5861300021855823E-002
  -4.5358472506349556E-002
 -0.11818558989558754     
 -0.11834153491366672     
 -0.11395817994158713     
 -0.11078095061505294     
 -0.10746755602655368     
 -0.10404317517735753     
 -0.10051973562823933     
  -9.6985801581209022E-002
  -9.3416611364624078E-002
  -8.9777454606481677E-002
  -8.5958123961223293E-002
  -8.1689747861961176E-002
  -7.7146009319544323E-002
  -7.2360418239898347E-002
  -6.7272863573759917E-002
  -6.1939661078052655E-002
  -5.5975733176132192E-002
  -4.9136141233656033E-002
  -4.1660784451847045E-002
  -3.3589374372470192E-002
  -3.3229747297604167E-002
 -0.11333229915586872     
 -0.11337003980348241     
 -0.10839881511233773     
 -0.10435904762517019     
 -0.10021238018872353     
  -9.6145857806283569E-002
  -9.2142790249965578E-002
  -8.8167604053252580E-002
  -8.4025572813850910E-002
  -7.9610501424901767E-002
  -7.5164564963720940E-002
  -7.0630938271076221E-002
  -6.5984163892668937E-002
  -6.1267763556686977E-002
  -5.6042557227294336E-002
  -5.0215193149333488E-002
  -4.3940669749788955E-002
  -3.7314221784195870E-002
  -2.9922869636976900E-002
  -2.1624478694338329E-002
  -2.1285405144992785E-002
 -0.10708606630052192     
 -0.10698953107328732     
 -0.10118816554897718     
  -9.6359438090830390E-002
  -9.1667227198677828E-002
  -8.7097815604629869E-002
  -8.2353372283419005E-002
  -7.7600704728074191E-002
  -7.2965325138060241E-002
  -6.8397666472698515E-002
  -6.3938848400896101E-002
  -5.9565542913731249E-002
  -5.4667613460956783E-002
  -4.9552527463476333E-002
  -4.4189544976640099E-002
  -3.8587528906159692E-002
  -3.2623898485593092E-002
  -2.5929012266567610E-002
  -1.8678387953496613E-002
  -1.0656751756891370E-002
  -1.0477543967901121E-002
  -9.8980940607710982E-002
  -9.8747297631480782E-002
  -9.2465189646704068E-002
  -8.7030731649468701E-002
  -8.1455769941230688E-002
  -7.6058423847168946E-002
  -7.0926328442259226E-002
  -6.6059535607538786E-002
  -6.1512454251129181E-002
  -5.6936164149485165E-002
  -5.2193379094997640E-002
  -4.7468719019624489E-002
  -4.2672084910632034E-002
  -3.7888044150478278E-002
  -3.2928296785944479E-002
  -2.7484929237001368E-002
  -2.1601213270910011E-002
  -1.5327330781605301E-002
  -7.6289879655644923E-003
   2.2524330817110815E-004
   2.1850211224132358E-004
  -8.9347882769423057E-002
  -8.9013229145932862E-002
  -8.1911244217164614E-002
  -7.5488259963722049E-002
  -6.9495587061815384E-002
  -6.4009490425509075E-002
  -5.9040733158047504E-002
  -5.3928659767728926E-002
  -4.9058076022755748E-002
  -4.4346205949735498E-002
  -3.9842499437245132E-002
  -3.5618762006862141E-002
  -3.1101560950368222E-002
  -2.6480314682578641E-002
  -2.1762185034288596E-002
  -1.6930334201512281E-002
  -1.1372781150063257E-002
  -5.3506842902162751E-003
   5.3987026795471584E-004
   1.0471547799048634E-003
   1.1111302196842295E-003
  -7.7228920768365086E-002
  -7.6854161779261423E-002
  -6.9305789182681113E-002
  -6.2752640084499364E-002
  -5.6762662582112253E-002
  -5.0953296529056225E-002
  -4.5593441351396820E-002
  -4.0703148743154761E-002
  -3.6319838936736480E-002
  -3.1925533317086252E-002
  -2.7603109280133514E-002
  -2.3522428951502399E-002
  -1.9545280936703768E-002
  -1.5462198120678252E-002
  -1.1236597395274932E-002
  -7.0710826863025445E-003
   1.3498406387796305E-004
   5.9662933748428953E-004
   1.5266068239450810E-003
   2.1719450624313776E-003
   1.9991640403938895E-003
  -6.3504498864524334E-002
  -6.3182132904294530E-002
  -5.5564001708150249E-002
  -4.8605564565836056E-002
  -4.2394511986595031E-002
  -3.6963041603988410E-002
  -3.1958165962622721E-002
  -2.7400407178966357E-002
  -2.3233229265623382E-002
  -1.9270533335959329E-002
  -1.5158218931996688E-002
  -1.1881373351247032E-002
  -8.7147077297138730E-003
  -4.4741203558682167E-003
   1.9382635463509489E-004
   5.6331928459903949E-004
   1.0171160381141295E-003
   1.6934177918123906E-003
   2.7919314380270258E-003
   3.0512941901223159E-003
   2.5713642530415092E-003
  -4.8091448863683786E-002
  -4.7808094116427120E-002
  -3.9961587952686402E-002
  -3.3469499215160584E-002
  -2.7613752091641502E-002
  -2.2350397685933051E-002
  -1.7576501833232915E-002
  -1.3878305412572095E-002
  -1.0450014727487498E-002
  -7.1145813419183088E-003
   3.4807443591765310E-005
   3.1364762285864093E-004
   6.1279365206061518E-004
   8.9782253586556118E-004
   1.2646220385824911E-003
   1.8178737134816408E-003
   2.4088348508104276E-003
   3.0163970727092970E-003
   3.9927498780487911E-003
   3.9305927928127721E-003
   3.1596228536411634E-003
  -3.1205117123092197E-002
  -3.1062825853315049E-002
  -2.2910910893000513E-002
  -1.7298988793404243E-002
  -1.2294227110307355E-002
  -7.3792915149685362E-003
   1.0678413198281782E-004
   4.3404618034923094E-004
   7.3951565098824145E-004
   1.0163368460307152E-003
   1.3041558327396687E-003
   1.6841493625448650E-003
   2.1356209305150673E-003
   2.5657956638615903E-003
   2.9813459358324071E-003
   3.3933769936273341E-003
   3.8564247629493827E-003
   4.3839003149003138E-003
   5.3591843699466362E-003
   4.9069759855178870E-003
   3.7698995936131905E-003
  -1.1787988475640887E-002
  -1.2592381834192465E-002
   1.7400437822628561E-004
   7.5751272659118349E-004
   1.2748229577541786E-003
   1.6870637608630435E-003
   2.0876982567897052E-003
   2.5809683435964368E-003
   3.0636337528587190E-003
   3.4933498773032342E-003
   3.8860345059811455E-003
   4.2279936613207102E-003
   4.5411264008610288E-003
   4.8578814495975264E-003
   5.1942746954585931E-003
   5.5686022661127956E-003
   6.0104279435678329E-003
   6.5265146464919760E-003
   7.4944409325403286E-003
   6.2949230763981508E-003
   4.4979231947617528E-003
   2.7328444797670871E-003
   2.6008025496613621E-003
   3.7895010696616530E-003
   4.6134074843311038E-003
   5.0717965014840391E-003
   5.3381639593252858E-003
   5.5064207141778425E-003
   5.6077371657985769E-003
   5.6849159401816318E-003
   5.7692844079903615E-003
   5.8680481555973127E-003
   5.9847366973252722E-003
   6.1226088585973146E-003
   6.2849505774148738E-003
   6.4770222018284375E-003
   6.7087881975051184E-003
   6.9976881013068355E-003
   7.3614747274363401E-003
   7.9595934568716317E-003
   7.8350572210117674E-003
   5.9502897846574407E-003
   4.1214052094415204E-003
   4.6891111996392757E-003
   6.5572007847139241E-003
   7.9775379980457101E-003
   7.8679049617982506E-003
   7.6140630674349308E-003
   7.2941637203935627E-003
   7.0045870137773521E-003
   6.7648119719924482E-003
   6.5788337398973284E-003
   6.4443228088025134E-003
   6.3575129271122204E-003
   6.3161453641550425E-003
   6.3187223250813739E-003
   6.3640416586130477E-003
   6.4526953752686951E-003
   6.5895888604824964E-003
   6.7862359285292854E-003
   7.0894007176099394E-003
   7.4464436752262331E-003
   7.6040954603391461E-003
 -0.13140800766403385     
 -0.13060749880303182     
 -0.13032963869945180     
 -0.13017542516004807     
 -0.12999931051967448     
 -0.12984910226814744     
 -0.12967420181206965     
 -0.12950592222985291     
 -0.12932710804938582     
 -0.12912875458964843     
 -0.12891177746903101     
 -0.12865157056263860     
 -0.12834311402060947     
 -0.12795738464177947     
 -0.12746770855657005     
 -0.12683242914004247     
 -0.12598711063387458     
 -0.12482998768145739     
 -0.12352217754365798     
 -0.12008271635959615     
 -0.11959097013357609     
 -0.12996691529800222     
 -0.12957888283334140     
 -0.12845255923917204     
 -0.12849122298313587     
 -0.12832623725145934     
 -0.12814936606356508     
 -0.12797669697852326     
 -0.12778495407840199     
 -0.12758015813376652     
 -0.12734179857337838     
 -0.12707046590574977     
 -0.12674838729152699     
 -0.12635971740509647     
 -0.12587521895880857     
 -0.12525612949301834     
 -0.12445805933802478     
 -0.12340385811777874     
 -0.12200419487560529     
 -0.12029510600897605     
 -0.11675225305632585     
 -0.11700507311026670     
 -0.12886151477233465     
 -0.12810840221319952     
 -0.12654874708582664     
 -0.12644195021247356     
 -0.12599670286315762     
 -0.12558619348107131     
 -0.12516817358295501     
 -0.12472977094070213     
 -0.12426637551589560     
 -0.12376604203000303     
 -0.12320609092884975     
 -0.12256907285423435     
 -0.12182383874714073     
 -0.12093386301386663     
 -0.11985522767556224     
 -0.11853268564593251     
 -0.11689949333464399     
 -0.11486004326580164     
 -0.11240310544074383     
 -0.10818283413595349     
 -0.10780781489529520     
 -0.12779324903131120     
 -0.12740068146127889     
 -0.12554860907199999     
 -0.12517302627196386     
 -0.12446995847670005     
 -0.12379232714335811     
 -0.12309647548033709     
 -0.12237414141837205     
 -0.12160931954400013     
 -0.12078316241960038     
 -0.11987592227765718     
 -0.11886083596084739     
 -0.11770559635113488     
 -0.11637082145304270     
 -0.11479796715842472     
 -0.11291666312183990     
 -0.11064369165848748     
 -0.10787875439157738     
 -0.10456174954574619     
  -9.9509555129143543E-002
  -9.9192777550815542E-002
 -0.12640001772489823     
 -0.12617700701668561     
 -0.12393181490758312     
 -0.12321513335267698     
 -0.12221046494593643     
 -0.12121851921207205     
 -0.12020091706307240     
 -0.11914733976569938     
 -0.11804010838116628     
 -0.11686561507200756     
 -0.11559579226994425     
 -0.11419461625828629     
 -0.11261430490835769     
 -0.11080097967972390     
 -0.10868648977412956     
 -0.10618722613409741     
 -0.10319620006044618     
  -9.9556703539095334E-002
  -9.5154272302031578E-002
  -8.9238300225598852E-002
  -8.8882990514484853E-002
 -0.12464114290791919     
 -0.12457532085798841     
 -0.12192855377744681     
 -0.12081507362068027     
 -0.11945306383684565     
 -0.11809810548744770     
 -0.11672109354893860     
 -0.11531116863929324     
 -0.11384373686213986     
 -0.11228738957342688     
 -0.11060512069621140     
 -0.10875220565951492     
 -0.10667196022978019     
 -0.10429189519465812     
 -0.10151446216132275     
  -9.8203833701713497E-002
  -9.4286681008534448E-002
  -8.9795349237377281E-002
  -8.4668426919878734E-002
  -7.8066733825055579E-002
  -7.7640077370522823E-002
 -0.12242470231454322     
 -0.12251624015919180     
 -0.11943597179636158     
 -0.11787892814681132     
 -0.11613185447881492     
 -0.11439566427145742     
 -0.11263543381159531     
 -0.11082454175782372     
 -0.10893382419391849     
 -0.10692596967725360     
 -0.10475120201579438     
 -0.10234587356939044     
  -9.9618647549678807E-002
  -9.6473175269545838E-002
  -9.2917492898914059E-002
  -8.8928700260282198E-002
  -8.4429431671907737E-002
  -7.9246530468287571E-002
  -7.2931182320426780E-002
  -6.5404254098949316E-002
  -6.4943490886264263E-002
 -0.11967493087687711     
 -0.11990415137240383     
 -0.11639296364658626     
 -0.11437647654743556     
 -0.11220687418728956     
 -0.11003104349283699     
 -0.10781486599301332     
 -0.10552539554094889     
 -0.10311824281809534     
 -0.10053262501375802     
  -9.7691558980746621E-002
  -9.4573502200271817E-002
  -9.1205939935007918E-002
  -8.7530641948790469E-002
  -8.3483128731532241E-002
  -7.8876641625957283E-002
  -7.3374922384779107E-002
  -6.7264734424914804E-002
  -6.0524140531977744E-002
  -5.3073120742530504E-002
  -5.2686284538576919E-002
 -0.11636756584417886     
 -0.11666528836437109     
 -0.11273531399864675     
 -0.11018699702928332     
 -0.10751145834058137     
 -0.10480461536030046     
 -0.10201819926272716     
  -9.9091178988866477E-002
  -9.5979639041865863E-002
  -9.2740737050793540E-002
  -8.9365957271958882E-002
  -8.5805565003054377E-002
  -8.1993635942748555E-002
  -7.7688125395993679E-002
  -7.2763475814602449E-002
  -6.7427353652841138E-002
  -6.1620581201487036E-002
  -5.5431563428468639E-002
  -4.8260096523919813E-002
  -3.9938380257939408E-002
  -3.9459107722017286E-002
 -0.11240942949327659     
 -0.11266311862134749     
 -0.10826991073587723     
 -0.10508277497641476     
 -0.10176209175590943     
  -9.8331329289139097E-002
  -9.4792391456672218E-002
  -9.1239790824830455E-002
  -8.7651550146316662E-002
  -8.3993940236900225E-002
  -8.0163486412023047E-002
  -7.5885198881132404E-002
  -7.1319071673768775E-002
  -6.6511595644717536E-002
  -6.1400974896029581E-002
  -5.6043071229953660E-002
  -5.0069074137323158E-002
  -4.3209521027287257E-002
  -3.5715010162076309E-002
  -2.7634101638954866E-002
  -2.7286918458066797E-002
 -0.10753695618348474     
 -0.10766451779098815     
 -0.10268659481779800     
  -9.8640182705936066E-002
  -9.4476543878152533E-002
  -9.0390332373755933E-002
  -8.6367267076156481E-002
  -8.2375329240127318E-002
  -7.8228364477865006E-002
  -7.3794212493730804E-002
  -6.9327359925623444E-002
  -6.4773579119269398E-002
  -6.0104699697323273E-002
  -5.5366737775874572E-002
  -5.0133855831633461E-002
  -4.4289810152458642E-002
  -3.7999696547453943E-002
  -3.1356280981686586E-002
  -2.3954431574604342E-002
  -1.5647885463824805E-002
  -1.5312849505518835E-002
 -0.10127393143321486     
 -0.10126026528366254     
  -9.5445575785633618E-002
  -9.0595491550335805E-002
  -8.5881997710209337E-002
  -8.1297014692973263E-002
  -7.6545392892637315E-002
  -7.1771202137683801E-002
  -6.7115763734616959E-002
  -6.2528034011371789E-002
  -5.8048535306812511E-002
  -5.3659786476390380E-002
  -4.8752963716624353E-002
  -4.3623529562569964E-002
  -3.8247446447832907E-002
  -3.2632063203365723E-002
  -2.6660681844458002E-002
  -1.9956109230558818E-002
  -1.2694228049312251E-002
  -4.6678159917385416E-003
  -4.4894112947712669E-003
  -9.3138321867396373E-002
  -9.2973889190389750E-002
  -8.6671913133945844E-002
  -8.1220250490220733E-002
  -7.5634774740965263E-002
  -7.0216293484791567E-002
  -6.5064119373381329E-002
  -6.0175755225192445E-002
  -5.5609014350328126E-002
  -5.1027136021860701E-002
  -4.6270685772509174E-002
  -4.1533811835054911E-002
  -3.6725062095554692E-002
  -3.1929462144610322E-002
  -2.6963483449029775E-002
  -2.1512812015322888E-002
  -1.5623052036623022E-002
  -9.3445397896207826E-003
  -1.6850900174174273E-003
   6.1602534639718098E-003
   6.1527170482705224E-003
  -8.3469147647059524E-002
  -8.3187487679809588E-002
  -7.6079119430895778E-002
  -6.9633745269024369E-002
  -6.3619989423351994E-002
  -5.8112208426443775E-002
  -5.3131105774384957E-002
  -4.8007608658604380E-002
  -4.3124340562944785E-002
  -3.8401340022097538E-002
  -3.3886922188444649E-002
  -2.9656677615544809E-002
  -2.5132917552643394E-002
  -2.0506081630337483E-002
  -1.5782381673987794E-002
  -1.0944525499135058E-002
  -5.3858735254506754E-003
   5.9624506971353455E-004
   6.4704197339254975E-003
   7.1269856039664113E-003
   7.1610614013468488E-003
  -7.1320562753434832E-002
  -7.0985963808173541E-002
  -6.3418621628952926E-002