# vtk DataFile Version 2.0
3D Unstructured Grid of Linear Triangles
ASCII
DATASET UNSTRUCTURED_GRID
FIELD FieldData  1
TIME 1 1 double
        3605.47799
POINTS     7056 float
      0.00000000E+00  1.00000000E+01  1.00000000E+00
      5.00000000E-01  1.00000000E+01  9.93333333E-01
      1.00000000E+00  1.00000000E+01  9.83333333E-01
      1.50000000E+00  1.00000000E+01  9.73333333E-01
      2.00000000E+00  1.00000000E+01  9.63333333E-01
      2.50000000E+00  1.00000000E+01  9.53333333E-01
      3.00000000E+00  1.00000000E+01  9.43333333E-01
      3.50000000E+00  1.00000000E+01  9.33333333E-01
      4.00000000E+00  1.00000000E+01  9.23333333E-01
      4.50000000E+00  1.00000000E+01  9.13333333E-01
      5.00000000E+00  1.00000000E+01  9.03333333E-01
      5.50000000E+00  1.00000000E+01  8.93333333E-01
      6.00000000E+00  1.00000000E+01  8.83333333E-01
      6.50000000E+00  1.00000000E+01  8.73333333E-01
      7.00000000E+00  1.00000000E+01  8.63333333E-01
      7.50000000E+00  1.00000000E+01  8.53333333E-01
      8.00000000E+00  1.00000000E+01  8.43333333E-01
      8.50000000E+00  1.00000000E+01  8.33333333E-01
      9.00000000E+00  1.00000000E+01  8.23333333E-01
      9.50000000E+00  1.00000000E+01  8.13333333E-01
      1.00000000E+01  1.00000000E+01  8.10000000E-01
      0.00000000E+00  9.50000000E+00  9.83333333E-01
      5.00000000E-01  9.50000000E+00  9.82500000E-01
      1.00000000E+00  9.50000000E+00  9.72500000E-01
      1.50000000E+00  9.50000000E+00  9.62500000E-01
      2.00000000E+00  9.50000000E+00  9.52500000E-01
      2.50000000E+00  9.50000000E+00  9.42500000E-01
      3.00000000E+00  9.50000000E+00  9.32500000E-01
      3.50000000E+00  9.50000000E+00  9.22500000E-01
      4.00000000E+00  9.50000000E+00  9.12500000E-01
      4.50000000E+00  9.50000000E+00  9.02500000E-01
      5.00000000E+00  9.50000000E+00  8.92500000E-01
      5.50000000E+00  9.50000000E+00  8.82500000E-01
      6.00000000E+00  9.50000000E+00  8.72500000E-01
      6.50000000E+00  9.50000000E+00  8.62500000E-01
      7.00000000E+00  9.50000000E+00  8.52500000E-01
      7.50000000E+00  9.50000000E+00  8.42500000E-01
      8.00000000E+00  9.50000000E+00  8.32500000E-01
      8.50000000E+00  9.50000000E+00  8.22500000E-01
      9.00000000E+00  9.50000000E+00  8.12500000E-01
      9.50000000E+00  9.50000000E+00  8.02500000E-01
      1.00000000E+01  9.50000000E+00  8.01666667E-01
      0.00000000E+00  9.00000000E+00  9.58333333E-01
      5.00000000E-01  9.00000000E+00  9.57500000E-01
      1.00000000E+00  9.00000000E+00  9.47500000E-01
      1.50000000E+00  9.00000000E+00  9.37500000E-01
      2.00000000E+00  9.00000000E+00  9.27500000E-01
      2.50000000E+00  9.00000000E+00  9.17500000E-01
      3.00000000E+00  9.00000000E+00  9.07500000E-01
      3.50000000E+00  9.00000000E+00  8.97500000E-01
      4.00000000E+00  9.00000000E+00  8.87500000E-01
      4.50000000E+00  9.00000000E+00  8.77500000E-01
      5.00000000E+00  9.00000000E+00  8.67500000E-01
      5.50000000E+00  9.00000000E+00  8.57500000E-01
      6.00000000E+00  9.00000000E+00  8.47500000E-01
      6.50000000E+00  9.00000000E+00  8.37500000E-01
      7.00000000E+00  9.00000000E+00  8.27500000E-01
      7.50000000E+00  9.00000000E+00  8.17500000E-01
      8.00000000E+00  9.00000000E+00  8.07500000E-01
      8.50000000E+00  9.00000000E+00  7.97500000E-01
      9.00000000E+00  9.00000000E+00  7.87500000E-01
      9.50000000E+00  9.00000000E+00  7.77500000E-01
      1.00000000E+01  9.00000000E+00  7.76666667E-01
      0.00000000E+00  8.50000000E+00  9.33333333E-01
      5.00000000E-01  8.50000000E+00  9.32500000E-01
      1.00000000E+00  8.50000000E+00  9.22500000E-01
      1.50000000E+00  8.50000000E+00  9.12500000E-01
      2.00000000E+00  8.50000000E+00  9.02500000E-01
      2.50000000E+00  8.50000000E+00  8.92500000E-01
      3.00000000E+00  8.50000000E+00  8.82500000E-01
      3.50000000E+00  8.50000000E+00  8.72500000E-01
      4.00000000E+00  8.50000000E+00  8.62500000E-01
      4.50000000E+00  8.50000000E+00  8.52500000E-01
      5.00000000E+00  8.50000000E+00  8.42500000E-01
      5.50000000E+00  8.50000000E+00  8.32500000E-01
      6.00000000E+00  8.50000000E+00  8.22500000E-01
      6.50000000E+00  8.50000000E+00  8.12500000E-01
      7.00000000E+00  8.50000000E+00  8.02500000E-01
      7.50000000E+00  8.50000000E+00  7.92500000E-01
      8.00000000E+00  8.50000000E+00  7.82500000E-01
      8.50000000E+00  8.50000000E+00  7.72500000E-01
      9.00000000E+00  8.50000000E+00  7.62500000E-01
      9.50000000E+00  8.50000000E+00  7.52500000E-01
      1.00000000E+01  8.50000000E+00  7.51666667E-01
      0.00000000E+00  8.00000000E+00  9.08333333E-01
      5.00000000E-01  8.00000000E+00  9.07500000E-01
      1.00000000E+00  8.00000000E+00  8.97500000E-01
      1.50000000E+00  8.00000000E+00  8.87500000E-01
      2.00000000E+00  8.00000000E+00  8.77500000E-01
      2.50000000E+00  8.00000000E+00  8.67500000E-01
      3.00000000E+00  8.00000000E+00  8.57500000E-01
      3.50000000E+00  8.00000000E+00  8.47500000E-01
      4.00000000E+00  8.00000000E+00  8.37500000E-01
      4.50000000E+00  8.00000000E+00  8.27500000E-01
      5.00000000E+00  8.00000000E+00  8.17500000E-01
      5.50000000E+00  8.00000000E+00  8.07500000E-01
      6.00000000E+00  8.00000000E+00  7.97500000E-01
      6.50000000E+00  8.00000000E+00  7.87500000E-01
      7.00000000E+00  8.00000000E+00  7.77500000E-01
      7.50000000E+00  8.00000000E+00  7.67500000E-01
      8.00000000E+00  8.00000000E+00  7.57500000E-01
      8.50000000E+00  8.00000000E+00  7.47500000E-01
      9.00000000E+00  8.00000000E+00  7.37500000E-01
      9.50000000E+00  8.00000000E+00  7.27500000E-01
      1.00000000E+01  8.00000000E+00  7.26666667E-01
      0.00000000E+00  7.50000000E+00  8.83333333E-01
      5.00000000E-01  7.50000000E+00  8.82500000E-01
      1.00000000E+00  7.50000000E+00  8.72500000E-01
      1.50000000E+00  7.50000000E+00  8.62500000E-01
      2.00000000E+00  7.50000000E+00  8.52500000E-01
      2.50000000E+00  7.50000000E+00  8.42500000E-01
      3.00000000E+00  7.50000000E+00  8.32500000E-01
      3.50000000E+00  7.50000000E+00  8.22500000E-01
      4.00000000E+00  7.50000000E+00  8.12500000E-01
      4.50000000E+00  7.50000000E+00  8.02500000E-01
      5.00000000E+00  7.50000000E+00  7.92500000E-01
      5.50000000E+00  7.50000000E+00  7.82500000E-01
      6.00000000E+00  7.50000000E+00  7.72500000E-01
      6.50000000E+00  7.50000000E+00  7.62500000E-01
      7.00000000E+00  7.50000000E+00  7.52500000E-01
      7.50000000E+00  7.50000000E+00  7.42500000E-01
      8.00000000E+00  7.50000000E+00  7.32500000E-01
      8.50000000E+00  7.50000000E+00  7.22500000E-01
      9.00000000E+00  7.50000000E+00  7.12500000E-01
      9.50000000E+00  7.50000000E+00  7.02500000E-01
      1.00000000E+01  7.50000000E+00  7.01666667E-01
      0.00000000E+00  7.00000000E+00  8.58333333E-01
      5.00000000E-01  7.00000000E+00  8.57500000E-01
      1.00000000E+00  7.00000000E+00  8.47500000E-01
      1.50000000E+00  7.00000000E+00  8.37500000E-01
      2.00000000E+00  7.00000000E+00  8.27500000E-01
      2.50000000E+00  7.00000000E+00  8.17500000E-01
      3.00000000E+00  7.00000000E+00  8.07500000E-01
      3.50000000E+00  7.00000000E+00  7.97500000E-01
      4.00000000E+00  7.00000000E+00  7.87500000E-01
      4.50000000E+00  7.00000000E+00  7.77500000E-01
      5.00000000E+00  7.00000000E+00  7.67500000E-01
      5.50000000E+00  7.00000000E+00  7.57500000E-01
      6.00000000E+00  7.00000000E+00  7.47500000E-01
      6.50000000E+00  7.00000000E+00  7.37500000E-01
      7.00000000E+00  7.00000000E+00  7.27500000E-01
      7.50000000E+00  7.00000000E+00  7.17500000E-01
      8.00000000E+00  7.00000000E+00  7.07500000E-01
      8.50000000E+00  7.00000000E+00  6.97500000E-01
      9.00000000E+00  7.00000000E+00  6.87500000E-01
      9.50000000E+00  7.00000000E+00  6.77500000E-01
      1.00000000E+01  7.00000000E+00  6.76666667E-01
      0.00000000E+00  6.50000000E+00  8.33333333E-01
      5.00000000E-01  6.50000000E+00  8.32500000E-01
      1.00000000E+00  6.50000000E+00  8.22500000E-01
      1.50000000E+00  6.50000000E+00  8.12500000E-01
      2.00000000E+00  6.50000000E+00  8.02500000E-01
      2.50000000E+00  6.50000000E+00  7.92500000E-01
      3.00000000E+00  6.50000000E+00  7.82500000E-01
      3.50000000E+00  6.50000000E+00  7.72500000E-01
      4.00000000E+00  6.50000000E+00  7.62500000E-01
      4.50000000E+00  6.50000000E+00  7.52500000E-01
      5.00000000E+00  6.50000000E+00  7.42500000E-01
      5.50000000E+00  6.50000000E+00  7.32500000E-01
      6.00000000E+00  6.50000000E+00  7.22500000E-01
      6.50000000E+00  6.50000000E+00  7.12500000E-01
      7.00000000E+00  6.50000000E+00  7.02500000E-01
      7.50000000E+00  6.50000000E+00  6.92500000E-01
      8.00000000E+00  6.50000000E+00  6.82500000E-01
      8.50000000E+00  6.50000000E+00  6.72500000E-01
      9.00000000E+00  6.50000000E+00  6.62500000E-01
      9.50000000E+00  6.50000000E+00  6.52500000E-01
      1.00000000E+01  6.50000000E+00  6.51666667E-01
      0.00000000E+00  6.00000000E+00  8.08333333E-01
      5.00000000E-01  6.00000000E+00  8.07500000E-01
      1.00000000E+00  6.00000000E+00  7.97500000E-01
      1.50000000E+00  6.00000000E+00  7.87500000E-01
      2.00000000E+00  6.00000000E+00  7.77500000E-01
      2.50000000E+00  6.00000000E+00  7.67500000E-01
      3.00000000E+00  6.00000000E+00  7.57500000E-01
      3.50000000E+00  6.00000000E+00  7.47500000E-01
      4.00000000E+00  6.00000000E+00  7.37500000E-01
      4.50000000E+00  6.00000000E+00  7.27500000E-01
      5.00000000E+00  6.00000000E+00  7.17500000E-01
      5.50000000E+00  6.00000000E+00  7.07500000E-01
      6.00000000E+00  6.00000000E+00  6.97500000E-01
      6.50000000E+00  6.00000000E+00  6.87500000E-01
      7.00000000E+00  6.00000000E+00  6.77500000E-01
      7.50000000E+00  6.00000000E+00  6.67500000E-01
      8.00000000E+00  6.00000000E+00  6.57500000E-01
[...]
POINT_DATA     7056
SCALARS pressure float
LOOKUP_TABLE default
 -0.14480866658108668     
 -0.14399653757771963     
 -0.14375123645493371     
 -0.14360861235996991     
 -0.14346730548795134     
 -0.14333616669895141     
 -0.14318939145504880     
 -0.14304626277643193     
 -0.14288827456025524     
 -0.14271750063500196     
 -0.14252898699396349     
 -0.14230110649807659     
 -0.14202464002226745     
 -0.14167752488296986     
 -0.14122776265202178     
 -0.14063583800142163     
 -0.13984702250736250     
 -0.13875139987876278     
 -0.13755802439618753     
 -0.13411811571786902     
 -0.13338781525938814     
 -0.14335818445154383     
 -0.14287164116170428     
 -0.14175973716473977     
 -0.14183304265348234     
 -0.14170184293140553     
 -0.14156419659675731     
 -0.14142610743457662     
 -0.14126923597443128     
 -0.14109383947398629     
 -0.14089146807037847     
 -0.14065227110312420     
 -0.14036099478806316     
 -0.14000044943930595     
 -0.13954741789729838     
 -0.13896221660950139     
 -0.13819946248513273     
 -0.13718899802926504     
 -0.13583444343138604     
 -0.13418992715473016     
 -0.13064122956455787     
 -0.13070017704302231     
 -0.14237727661964258     
 -0.14150863536773678     
 -0.13997664361390061     
 -0.13995191141284280     
 -0.13956410727151747     
 -0.13920480533906202     
 -0.13883591336563375     
 -0.13844580004585558     
 -0.13802844442785075     
 -0.13756783814215021     
 -0.13704690462333999     
 -0.13644443301285533     
 -0.13573211933928733     
 -0.13487037937298263     
 -0.13381098233745911     
 -0.13249404185013305     
 -0.13084945742291457     
 -0.12880258665932531     
 -0.12639571493870067     
 -0.12222672193092507     
 -0.12171898978169512     
 -0.14143941029784182     
 -0.14095336363388203     
 -0.13916147213335400     
 -0.13889983846202236     
 -0.13827449328535057     
 -0.13767175410087062     
 -0.13704151998309883     
 -0.13637489442611586     
 -0.13565644186972498     
 -0.13487169610572036     
 -0.13399412899536967     
 -0.13299492715293210     
 -0.13183689592181908     
 -0.13047701943737258     
 -0.12887052337064517     
 -0.12696752630885516     
 -0.12469997908563982     
 -0.12198697804232773     
 -0.11881889721882427     
 -0.11400691914617790     
 -0.11361633116219139     
 -0.14023806720129425     
 -0.13990018943028285     
 -0.13773524613250485     
 -0.13715540622270356     
 -0.13623813997290019     
 -0.13532629922934380     
 -0.13437489183104775     
 -0.13337187496579253     
 -0.13229878222543692     
 -0.13113103963039771     
 -0.12984472645978826     
 -0.12841067129796982     
 -0.12679893144636617     
 -0.12496246363660109     
 -0.12284141586935836     
 -0.12037043593803126     
 -0.11747476763188643     
 -0.11406420706750922     
 -0.11006461006960655     
 -0.10436053331345187     
 -0.10393314949088807     
 -0.13869218961650304     
 -0.13846091856409209     
 -0.13591956620678855     
 -0.13495092889783941     
 -0.13367800484001227     
 -0.13239254868993258     
 -0.13105549656730589     
 -0.12965313939232870     
 -0.12817109965379575     
 -0.12659365998306613     
 -0.12489164630185802     
 -0.12302331033678823     
 -0.12094046110853213     
 -0.11858831381382448     
 -0.11590019022891981     
 -0.11279416035564681     
 -0.10915278637630525     
 -0.10479213863720500     
  -9.9734836030001939E-002
  -9.3324933675626609E-002
  -9.2857964432525322E-002
 -0.13668165665627666     
 -0.13654088709915038     
 -0.13358561633642285     
 -0.13215406877281585     
 -0.13046114267740114     
 -0.12874671698480025     
 -0.12698937027393481     
 -0.12517860489872221     
 -0.12328746658457974     
 -0.12128276421306811     
 -0.11912584904674055     
 -0.11677015641210668     
 -0.11415740784414315     
 -0.11121079287045386     
 -0.10781439137450828     
 -0.10382838864570211     
  -9.9301221121038827E-002
  -9.4216371543055275E-002
  -8.8519203053889522E-002
  -8.1189424595577889E-002
  -8.0651073827270575E-002
 -0.13407049740571772     
 -0.13402884646371888     
 -0.13060410162350863     
 -0.12865373598008661     
 -0.12651347397261800     
 -0.12436591723935836     
 -0.12217670374220652     
 -0.11992028384178445     
 -0.11756593542318611     
 -0.11507422828052162     
 -0.11239296652426453     
 -0.10944748621132577     
 -0.10612577621232124     
 -0.10237330234962859     
  -9.8244122521267657E-002
  -9.3684838316674762E-002
  -8.8636812593290523E-002
  -8.2705920247082537E-002
  -7.5891498761005746E-002
  -6.8022645636500956E-002
  -6.7492577461671199E-002
 -0.13071430357654432     
 -0.13077311021134233     
 -0.12687838941015200     
 -0.12440641010545063     
 -0.12179149980471890     
 -0.11915736623086885     
 -0.11647157523545172     
 -0.11369928920561730     
 -0.11079230580748636     
 -0.10767234123020770     
 -0.10425469085029875     
 -0.10058968503246335     
  -9.6677212940622176E-002
  -9.2468452425014155E-002
  -8.7895440989881293E-002
  -8.2581090449861907E-002
  -7.6611749579152552E-002
  -7.0093404503088583E-002
  -6.3051237863389953E-002
  -5.4991202804165015E-002
  -5.4502395133529995E-002
 -0.12657797037835039     
 -0.12667462063028095     
 -0.12232999903586743     
 -0.11927098643597794     
 -0.11610310924254104     
 -0.11289631336937914     
 -0.10959570055038351     
 -0.10611665909503756     
 -0.10245217864777972     
  -9.8687649062491695E-002
  -9.4790555715074304E-002
  -9.0733729042972874E-002
  -8.6398067935221506E-002
  -8.1445339851279386E-002
  -7.6113700186002942E-002
  -7.0394189304281096E-002
  -6.4277603788931964E-002
  -5.7761174906238638E-002
  -5.0103158213450259E-002
  -4.1596294003485954E-002
  -4.1096256342697306E-002
 -0.12154451437765620     
 -0.12157129348045749     
 -0.11673281602534955     
 -0.11298429330564841     
 -0.10911316267423816     
 -0.10509274134084727     
 -0.10100672590634320     
  -9.6927438755601364E-002
  -9.2834601455162299E-002
  -8.8697169174130439E-002
  -8.4273430111648187E-002
  -7.9496185724253307E-002
  -7.4560778661370689E-002
  -6.9394713863495924E-002
  -6.4022766409008738E-002
  -5.8430436479769858E-002
  -5.1928174708662733E-002
  -4.4892199643489832E-002
  -3.7378019406377749E-002
  -2.8989176331381372E-002
  -2.8579945254261611E-002
 -0.11529671290451951     
 -0.11519073162572298     
 -0.10971521218524000     
 -0.10499591179452093     
 -0.10025835158367173     
  -9.5626344416934767E-002
  -9.1104441321632618E-002
  -8.6607021633457765E-002
  -8.1822300717834154E-002
  -7.7019978931632371E-002
  -7.2206009840553406E-002
  -6.7334577458885450E-002
  -6.2475526850996450E-002
  -5.7408319108848256E-002
  -5.1778675960330603E-002
  -4.5820111716644948E-002
  -3.9492429665800979E-002
  -3.2773529872749604E-002
  -2.5190805748366747E-002
  -1.7040590967441510E-002
  -1.6779267121520339E-002
 -0.10721246376724694     
 -0.10697723710958608     
 -0.10064666536614507     
  -9.5194649486702351E-002
  -8.9962765418477711E-002
  -8.4762786358468567E-002
  -7.9459814002466336E-002
  -7.4342533520473028E-002
  -6.9357860793969828E-002
  -6.4557693869172594E-002
  -5.9958571089563817E-002
  -5.5005733667113949E-002
  -4.9927760756507372E-002
  -4.4698084210619327E-002
  -3.9328408810190750E-002
  -3.3842747133912866E-002
  -2.7736320594522305E-002
  -2.1058840776180515E-002
  -1.3592287835988908E-002
  -5.5648831758922466E-003
  -5.5598567669438593E-003
  -9.6984102026684449E-002
  -9.6641781395195539E-002
  -8.9906174372681710E-002
  -8.3705317036788213E-002
  -7.7601371045590908E-002
  -7.1836113221452114E-002
  -6.6415113933650530E-002
  -6.1428273666598567E-002
  -5.6516415287397370E-002
  -5.1569792393795513E-002
  -4.6713531804022455E-002
  -4.1905928458522201E-002
  -3.7236923146596608E-002
  -3.2444472166869791E-002
  -2.7357835109025477E-002
  -2.2108511072863251E-002
  -1.6609845706339714E-002
  -1.0111316373745297E-002
   2.2318514990642921E-004
   6.1170146105622540E-004
   4.7122022958584643E-004
  -8.4887560970641887E-002
  -8.4488564588461421E-002
  -7.6842724113071956E-002
  -7.0021999425528711E-002
  -6.3825833814214375E-002
  -5.8234610053571841E-002
  -5.2660782174177127E-002
  -4.7441662859594086E-002
  -4.2555336264081485E-002
  -3.7987210869273827E-002
  -3.3584323297484765E-002
  -2.9051768748123177E-002
  -2.4679427932107978E-002
  -2.0320357848194571E-002
  -1.5770303894534501E-002
  -1.1185673859793658E-002
  -6.4782378122272138E-003
   2.7309897475516888E-004
   1.1390005481102031E-003
   1.6588914912424703E-003
   1.5973715186961158E-003
  -7.0201039634064460E-002
  -6.9813931059374473E-002
  -6.2144152193846759E-002
  -5.5288079266970540E-002
  -4.8899507222247438E-002
  -4.3104981799865966E-002
  -3.7893310689633669E-002
  -3.3108812774643281E-002
  -2.8625167731076370E-002
  -2.4433452987715269E-002
  -2.0334777360474999E-002
  -1.5992798879281896E-002
  -1.2483529010389259E-002
  -8.9897322060983539E-003
  -3.8469402315041072E-003
   2.5809145703562365E-004
   6.8344894649743980E-004
   1.2360149131453793E-003
   2.3783708505716785E-003
   2.7262821641194338E-003
   2.2787644492210635E-003
  -5.4268233446404468E-002
  -5.3885462262688665E-002
  -4.5727558584142777E-002
  -3.8911771764735273E-002
  -3.3093716921624966E-002
  -2.7724181141148076E-002
  -2.2793531609377398E-002
  -1.8149828658710274E-002
  -1.4546539365968673E-002
  -1.1287335558351284E-002
  -7.7506923223844169E-003
   7.3026617023128217E-006
   2.9524140239586502E-004
   6.2260650704303391E-004
   9.4066010530481474E-004
   1.3677855621494278E-003
   2.0264892895864965E-003
   2.6982027186339564E-003
   3.7086716613670000E-003
   3.6794332704664580E-003
   2.9204173142495663E-003
  -3.6569718687967309E-002
  -3.6255176577164171E-002
  -2.7844329799533957E-002
  -2.1394056235272709E-002
  -1.6588963937209690E-002
  -1.1925274036681950E-002
  -7.5463027371089090E-003
   8.8464255308780734E-005
   4.0428209845821088E-004
   7.0511406092565922E-004
   9.8753877170254046E-004
   1.2816282360225413E-003
   1.6631801521935668E-003
   2.1572108808663925E-003
   2.6342945759277882E-003
   3.1038085600467867E-003
   3.5951555104187169E-003
   4.1380053413803512E-003
   5.1212610528098244E-003
   4.7107279038726795E-003
   3.5982236646920907E-003
  -1.7666261391161411E-002
  -1.7218179517441704E-002
  -5.8011742988532478E-003
   3.9160884185120571E-004
   9.1899597292310225E-004
   1.3509377550963218E-003
   1.7217695205172625E-003
   2.0909859381438439E-003
   2.5601532163692215E-003
   3.0341022508594707E-003
   3.4678854487587428E-003
   3.8779355527332944E-003
   4.2442011617960978E-003
   4.5862506150403468E-003
   4.9416900988449889E-003
   5.3307502660568428E-003
   5.7854746074840289E-003
   6.3132092988576818E-003
   7.2863469478753806E-003
   6.1364187405296422E-003
   4.3800208015102151E-003
   2.0246713489564063E-003
   2.0826830900544961E-003
   3.2738470980315667E-003
   3.9658212728361127E-003
   4.4752126944608622E-003
   4.8102468304597234E-003
   5.0535669647908616E-003
   5.2387554417529011E-003
   5.3684339220657446E-003
   5.4766633322740135E-003
   5.5922524725517597E-003
   5.7223647664057277E-003
   5.8710974697383867E-003
   6.0432849370472457E-003
   6.2444076191721593E-003
   6.4826825903754760E-003
   6.7757445742559243E-003
   7.1428301356711811E-003
   7.7438957446174378E-003
   7.6319779195886525E-003
   5.8059589266585745E-003
   3.1021983839149619E-003
   3.6939590790656426E-003
   5.6941016716601225E-003
   7.3156427514649135E-003
   7.3078125297826382E-003
   7.1684068902143558E-003
   6.9292728471593498E-003
   6.6932117864862408E-003
   6.4876159597776267E-003
   6.3236321335304515E-003
   6.2035555515611521E-003
   6.1258897311976127E-003
   6.0887569180896406E-003
   6.0919657618590988E-003
   6.1364649367177211E-003
   6.2237715982804004E-003
   6.3583885812882731E-003
   6.5523331041800296E-003
   6.8544192300804083E-003
   7.2072708791647610E-003
   7.3542853371884927E-003
 -0.13899413148140960     
 -0.13823986156844317     
 -0.13799461673834224     
 -0.13785241901483558     
 -0.13771130564255435     
 -0.13758033188433169     
 -0.13743373682461449     
 -0.13729074919079670     
 -0.13713290575165021     
 -0.13696224444459684     
 -0.13677379663579206     
 -0.13654592915235891     
 -0.13626936425882086     
 -0.13592197996316491     
 -0.13547169281881000     
 -0.13487884207785514     
 -0.13408857437103219     
 -0.13299105967121819     
 -0.13179432747224384     
 -0.12835005106450728     
 -0.12772116411831286     
 -0.13760883203729532     
 -0.13723286443669450     
 -0.13611907328047584     
 -0.13619315886100589     
 -0.13606242113505607     
 -0.13592525721499163     
 -0.13578760619632166     
 -0.13563113896951970     
 -0.13545604562333899     
 -0.13525383592995599     
 -0.13501458466629374     
 -0.13472297699015168     
 -0.13436172816420491     
 -0.13390749055107518     
 -0.13332045681719645     
 -0.13255515121721967     
 -0.13154137061431972     
 -0.13018261760422398     
 -0.12853193654916165     
 -0.12497466331829564     
 -0.12512762018309684     
 -0.13663121171718870     
 -0.13587468152874232     
 -0.13434158174466279     
 -0.13431787007955262     
 -0.13393080619971071     
 -0.13357201526017745     
 -0.13320348521827513     
 -0.13281352203952249     
 -0.13239602746326237     
 -0.13193494337311115     
 -0.13141308916891598     
 -0.13080917389286273     
 -0.13009479908419752     
 -0.12923026643074764     
 -0.12816712804347863     
 -0.12684508942713030     
 -0.12519323848091421     
 -0.12313629189965430     
 -0.12071738241303422     
 -0.11653791173943773     
 -0.11612477226587012     
 -0.13569425464247090     
 -0.13532151327329434     
 -0.13352879808733081     
 -0.13326829537901513     
 -0.13264362705924074     
 -0.13204106804833479     
 -0.13141062991466682     
 -0.13074328516744663     
 -0.13002353996276456     
 -0.12923687881113710     
 -0.12835670396377721     
 -0.12735403721679125     
 -0.12619136391267066     
 -0.12482509633363914     
 -0.12320979678412673     
 -0.12129627178967857     
 -0.11901757569201223     
 -0.11629273962364017     
 -0.11311143454413219     
 -0.10829019558029597     
 -0.10798934603128424     
 -0.13449392854589423     
 -0.13427001424492663     
 -0.13210407049499467     
 -0.13152491879814096     
 -0.13060758429483169     
 -0.12969481718557715     
 -0.12874179544780484     
 -0.12773644468863987     
 -0.12666018616734481     
 -0.12548821000128529     
 -0.12419612292006499     
 -0.12275426082933390     
 -0.12113306598997489     
 -0.11928647902515176     
 -0.11715456934052880     
 -0.11467190296461399     
 -0.11176401641328738     
 -0.10834134019506950     
 -0.10433093076859352     
  -9.8625164814393693E-002
  -9.8283461896935931E-002
 -0.13294890117606675     
 -0.13283062822061276     
 -0.13028792837040876     
 -0.12931862011745995     
 -0.12804400935513127     
 -0.12675582166942626     
 -0.12541496944336614     
 -0.12400733442244570     
 -0.12251808533665903     
 -0.12093182145568855     
 -0.11922042606985155     
 -0.11734215113274460     
 -0.11524865582049958     
 -0.11288519669451171     
 -0.11018536709244252     
 -0.10706790257429374     
 -0.10341751519175645     
  -9.9048486566222449E-002
  -9.3969048716293357E-002
  -8.7542144744992959E-002
  -8.7145752147170172E-002
 -0.13093773462960043     
 -0.13090705964517615     
 -0.12794998064997457     
 -0.12651552898401747     
 -0.12481829739155562     
 -0.12309744416845959     
 -0.12133159283829810     
 -0.11951154451268607     
 -0.11761082497691967     
 -0.11559606608222468     
 -0.11342858206353938     
 -0.11106192019601088     
 -0.10843812515725827     
 -0.10548132551912401     
 -0.10207729494585406     
  -9.8079980205682482E-002
  -9.3532150509982717E-002
  -8.8424896302677095E-002
  -8.2705128687631260E-002
  -7.5372986714400653E-002
  -7.4895799671430757E-002
 -0.12832286464439907     
 -0.12838734545853464     
 -0.12495906972443641     
 -0.12300115936715650     
 -0.12085150234261501     
 -0.11869408897885785     
 -0.11649478923473544     
 -0.11422794234658219     
 -0.11186289680703800     
 -0.10936046633055482     
 -0.10666890163540324     
 -0.10371486944409582     
 -0.10038613099349576     
  -9.6618024932599564E-002
  -9.2469283738147279E-002
  -8.7888812258227325E-002
  -8.2820510390590962E-002
  -7.6880325154523754E-002
  -7.0039359183525510E-002
  -6.2152213054274180E-002
  -6.1662623991445030E-002
 -0.12495693114855909     
 -0.12511712001954339     
 -0.12121347395114053     
 -0.11873034351903597     
 -0.11610470098110265     
 -0.11345952044767646     
 -0.11076269607583787     
 -0.10797977307435189     
 -0.10506336689193098     
 -0.10193637945554208     
  -9.8508788761818497E-002
  -9.4825815743738967E-002
  -9.0894594989426952E-002
  -8.6665519266999308E-002
  -8.2075423404535511E-002
  -7.6751958230001444E-002
  -7.0759724173087971E-002
  -6.4217593301391679E-002
  -5.7147382805009118E-002
  -4.9081264728951426E-002
  -4.8622276899180798E-002
 -0.12080194938538283     
 -0.12099435984957492     
 -0.11663919845378476     
 -0.11356782377010698     
 -0.11038838631727814     
 -0.10717075491320996     
 -0.10386154247275761     
 -0.10037587944652812     
  -9.6696290999589388E-002
  -9.2913724645588919E-002
  -8.8997834433718254E-002
  -8.4921939502253782E-002
  -8.0574926952565087E-002
  -7.5609510213590386E-002
  -7.0257251041620478E-002
  -6.4516958862144230E-002
  -5.8376709347234719E-002
  -5.1847048590258363E-002
  -4.4168915818402744E-002
  -3.5650772807648480E-002
  -3.5166489934937969E-002
 -0.11574674162405628     
 -0.11586220727108799     
 -0.11101250487914223     
 -0.10725205273387116     
 -0.10337267412846556     
  -9.9344289076758838E-002
  -9.5240397154204959E-002
  -9.1142598224178945E-002
  -8.7030265921646657E-002
  -8.2876298728848052E-002
  -7.8447728897069580E-002
  -7.3650899965168659E-002
  -6.8696293299373337E-002
  -6.3511462349002637E-002
  -5.8118725193912729E-002
  -5.2515994372536567E-002
  -4.5996933989137651E-002
  -3.8945154456926763E-002
  -3.1415266876578314E-002
  -2.3021532071669584E-002
  -2.2621414470192319E-002
 -0.10947625481692376     
 -0.10944928384205459     
 -0.10396678106105540     
  -9.9238312345113461E-002
  -9.4481616250372893E-002
  -8.9829975028655112E-002
  -8.5288314407283003E-002
  -8.0779384382838701E-002
  -7.5983536996838102E-002
  -7.1162685470163828E-002
  -6.6331342230545626E-002
  -6.1441195561559428E-002
  -5.6563454240656563E-002
  -5.1488555160166344E-002
  -4.5845121665615683E-002
  -3.9873621806408563E-002
  -3.3532972124292362E-002
  -2.6804543812282179E-002
  -1.9212630055319813E-002
  -1.1058270106041733E-002
  -1.0800640335326159E-002
 -0.10137317404184618     
 -0.10120934773782983     
  -9.4860704862762671E-002
  -8.9387246313082799E-002
  -8.4135121650013592E-002
  -7.8929307459649600E-002
  -7.3607333127122782E-002
  -6.8471845038521786E-002
  -6.3470091178143076E-002
  -5.8651752139914859E-002
  -5.4037188988834105E-002
  -4.9077165710891969E-002
  -4.3987446461714562E-002
  -3.8747543759618086E-002
  -3.3367748522190419E-002
  -2.7875089280376224E-002
  -2.1760773080760975E-002
  -1.5072338528172502E-002
  -7.6041367180193003E-003
   3.8670761623721091E-004
   3.9581047243567703E-004
  -9.1109549360649938E-002
  -9.0822063192520452E-002
  -8.4067736054605602E-002
  -7.7858553738344952E-002
  -7.1735170490356548E-002
  -6.5952212351627168E-002
  -6.0512372695611411E-002
  -5.5507730173975277E-002
  -5.0589577954422767E-002
  -4.5631542628382496E-002
  -4.0765367097467781E-002
  -3.5948116691247950E-002
  -3.1270134355948283E-002
  -2.6473584848498283E-002
  -2.1382024161218958E-002
  -1.6127436646107614E-002
  -1.0623525262266972E-002
  -4.1232777703070905E-003
   6.0618169744695426E-003
   6.6380406754352698E-003
   6.4756160866966455E-003
  -7.8985264814724815E-002
  -7.8628206675856543E-002
  -7.0963409724967980E-002