# vtk DataFile Version 2.0
3D Unstructured Grid of Linear Triangles
ASCII
DATASET UNSTRUCTURED_GRID
FIELD FieldData  1
TIME 1 1 double
        7200.00000
POINTS     7056 float
      0.00000000E+00  1.00000000E+01  1.00000000E+00
      5.00000000E-01  1.00000000E+01  9.93333333E-01
      1.00000000E+00  1.00000000E+01  9.83333333E-01
      1.50000000E+00  1.00000000E+01  9.73333333E-01
      2.00000000E+00  1.00000000E+01  9.63333333E-01
      2.50000000E+00  1.00000000E+01  9.53333333E-01
      3.00000000E+00  1.00000000E+01  9.43333333E-01
      3.50000000E+00  1.00000000E+01  9.33333333E-01
      4.00000000E+00  1.00000000E+01  9.23333333E-01
      4.50000000E+00  1.00000000E+01  9.13333333E-01
      5.00000000E+00  1.00000000E+01  9.03333333E-01
      5.50000000E+00  1.00000000E+01  8.93333333E-01
      6.00000000E+00  1.00000000E+01  8.83333333E-01
      6.50000000E+00  1.00000000E+01  8.73333333E-01
      7.00000000E+00  1.00000000E+01  8.63333333E-01
      7.50000000E+00  1.00000000E+01  8.53333333E-01
      8.00000000E+00  1.00000000E+01  8.43333333E-01
      8.50000000E+00  1.00000000E+01  8.33333333E-01
      9.00000000E+00  1.00000000E+01  8.23333333E-01
      9.50000000E+00  1.00000000E+01  8.13333333E-01
      1.00000000E+01  1.00000000E+01  8.10000000E-01
      0.00000000E+00  9.50000000E+00  9.83333333E-01
      5.00000000E-01  9.50000000E+00  9.82500000E-01
      1.00000000E+00  9.50000000E+00  9.72500000E-01
      1.50000000E+00  9.50000000E+00  9.62500000E-01
      2.00000000E+00  9.50000000E+00  9.52500000E-01
      2.50000000E+00  9.50000000E+00  9.42500000E-01
      3.00000000E+00  9.50000000E+00  9.32500000E-01
      3.50000000E+00  9.50000000E+00  9.22500000E-01
      4.00000000E+00  9.50000000E+00  9.12500000E-01
      4.50000000E+00  9.50000000E+00  9.02500000E-01
      5.00000000E+00  9.50000000E+00  8.92500000E-01
      5.50000000E+00  9.50000000E+00  8.82500000E-01
      6.00000000E+00  9.50000000E+00  8.72500000E-01
      6.50000000E+00  9.50000000E+00  8.62500000E-01
      7.00000000E+00  9.50000000E+00  8.52500000E-01
      7.50000000E+00  9.50000000E+00  8.42500000E-01
      8.00000000E+00  9.50000000E+00  8.32500000E-01
      8.50000000E+00  9.50000000E+00  8.22500000E-01
      9.00000000E+00  9.50000000E+00  8.12500000E-01
      9.50000000E+00  9.50000000E+00  8.02500000E-01
      1.00000000E+01  9.50000000E+00  8.01666667E-01
      0.00000000E+00  9.00000000E+00  9.58333333E-01
      5.00000000E-01  9.00000000E+00  9.57500000E-01
      1.00000000E+00  9.00000000E+00  9.47500000E-01
      1.50000000E+00  9.00000000E+00  9.37500000E-01
      2.00000000E+00  9.00000000E+00  9.27500000E-01
      2.50000000E+00  9.00000000E+00  9.17500000E-01
      3.00000000E+00  9.00000000E+00  9.07500000E-01
      3.50000000E+00  9.00000000E+00  8.97500000E-01
      4.00000000E+00  9.00000000E+00  8.87500000E-01
      4.50000000E+00  9.00000000E+00  8.77500000E-01
      5.00000000E+00  9.00000000E+00  8.67500000E-01
      5.50000000E+00  9.00000000E+00  8.57500000E-01
      6.00000000E+00  9.00000000E+00  8.47500000E-01
      6.50000000E+00  9.00000000E+00  8.37500000E-01
      7.00000000E+00  9.00000000E+00  8.27500000E-01
      7.50000000E+00  9.00000000E+00  8.17500000E-01
      8.00000000E+00  9.00000000E+00  8.07500000E-01
      8.50000000E+00  9.00000000E+00  7.97500000E-01
      9.00000000E+00  9.00000000E+00  7.87500000E-01
      9.50000000E+00  9.00000000E+00  7.77500000E-01
      1.00000000E+01  9.00000000E+00  7.76666667E-01
      0.00000000E+00  8.50000000E+00  9.33333333E-01
      5.00000000E-01  8.50000000E+00  9.32500000E-01
      1.00000000E+00  8.50000000E+00  9.22500000E-01
      1.50000000E+00  8.50000000E+00  9.12500000E-01
      2.00000000E+00  8.50000000E+00  9.02500000E-01
      2.50000000E+00  8.50000000E+00  8.92500000E-01
      3.00000000E+00  8.50000000E+00  8.82500000E-01
      3.50000000E+00  8.50000000E+00  8.72500000E-01
      4.00000000E+00  8.50000000E+00  8.62500000E-01
      4.50000000E+00  8.50000000E+00  8.52500000E-01
      5.00000000E+00  8.50000000E+00  8.42500000E-01
      5.50000000E+00  8.50000000E+00  8.32500000E-01
      6.00000000E+00  8.50000000E+00  8.22500000E-01
      6.50000000E+00  8.50000000E+00  8.12500000E-01
      7.00000000E+00  8.50000000E+00  8.02500000E-01
      7.50000000E+00  8.50000000E+00  7.92500000E-01
      8.00000000E+00  8.50000000E+00  7.82500000E-01
      8.50000000E+00  8.50000000E+00  7.72500000E-01
      9.00000000E+00  8.50000000E+00  7.62500000E-01
      9.50000000E+00  8.50000000E+00  7.52500000E-01
      1.00000000E+01  8.50000000E+00  7.51666667E-01
      0.00000000E+00  8.00000000E+00  9.08333333E-01
      5.00000000E-01  8.00000000E+00  9.07500000E-01
      1.00000000E+00  8.00000000E+00  8.97500000E-01
      1.50000000E+00  8.00000000E+00  8.87500000E-01
      2.00000000E+00  8.00000000E+00  8.77500000E-01
      2.50000000E+00  8.00000000E+00  8.67500000E-01
      3.00000000E+00  8.00000000E+00  8.57500000E-01
      3.50000000E+00  8.00000000E+00  8.47500000E-01
      4.00000000E+00  8.00000000E+00  8.37500000E-01
      4.50000000E+00  8.00000000E+00  8.27500000E-01
      5.00000000E+00  8.00000000E+00  8.17500000E-01
      5.50000000E+00  8.00000000E+00  8.07500000E-01
      6.00000000E+00  8.00000000E+00  7.97500000E-01
      6.50000000E+00  8.00000000E+00  7.87500000E-01
      7.00000000E+00  8.00000000E+00  7.77500000E-01
      7.50000000E+00  8.00000000E+00  7.67500000E-01
      8.00000000E+00  8.00000000E+00  7.57500000E-01
      8.50000000E+00  8.00000000E+00  7.47500000E-01
      9.00000000E+00  8.00000000E+00  7.37500000E-01
      9.50000000E+00  8.00000000E+00  7.27500000E-01
      1.00000000E+01  8.00000000E+00  7.26666667E-01
      0.00000000E+00  7.50000000E+00  8.83333333E-01
      5.00000000E-01  7.50000000E+00  8.82500000E-01
      1.00000000E+00  7.50000000E+00  8.72500000E-01
      1.50000000E+00  7.50000000E+00  8.62500000E-01
      2.00000000E+00  7.50000000E+00  8.52500000E-01
      2.50000000E+00  7.50000000E+00  8.42500000E-01
      3.00000000E+00  7.50000000E+00  8.32500000E-01
      3.50000000E+00  7.50000000E+00  8.22500000E-01
      4.00000000E+00  7.50000000E+00  8.12500000E-01
      4.50000000E+00  7.50000000E+00  8.02500000E-01
      5.00000000E+00  7.50000000E+00  7.92500000E-01
      5.50000000E+00  7.50000000E+00  7.82500000E-01
      6.00000000E+00  7.50000000E+00  7.72500000E-01
      6.50000000E+00  7.50000000E+00  7.62500000E-01
      7.00000000E+00  7.50000000E+00  7.52500000E-01
      7.50000000E+00  7.50000000E+00  7.42500000E-01
      8.00000000E+00  7.50000000E+00  7.32500000E-01
      8.50000000E+00  7.50000000E+00  7.22500000E-01
      9.00000000E+00  7.50000000E+00  7.12500000E-01
      9.50000000E+00  7.50000000E+00  7.02500000E-01
      1.00000000E+01  7.50000000E+00  7.01666667E-01
      0.00000000E+00  7.00000000E+00  8.58333333E-01
      5.00000000E-01  7.00000000E+00  8.57500000E-01
      1.00000000E+00  7.00000000E+00  8.47500000E-01
      1.50000000E+00  7.00000000E+00  8.37500000E-01
      2.00000000E+00  7.00000000E+00  8.27500000E-01
      2.50000000E+00  7.00000000E+00  8.17500000E-01
      3.00000000E+00  7.00000000E+00  8.07500000E-01
      3.50000000E+00  7.00000000E+00  7.97500000E-01
      4.00000000E+00  7.00000000E+00  7.87500000E-01
      4.50000000E+00  7.00000000E+00  7.77500000E-01
      5.00000000E+00  7.00000000E+00  7.67500000E-01
      5.50000000E+00  7.00000000E+00  7.57500000E-01
      6.00000000E+00  7.00000000E+00  7.47500000E-01
      6.50000000E+00  7.00000000E+00  7.37500000E-01
      7.00000000E+00  7.00000000E+00  7.27500000E-01
      7.50000000E+00  7.00000000E+00  7.17500000E-01
      8.00000000E+00  7.00000000E+00  7.07500000E-01
      8.50000000E+00  7.00000000E+00  6.97500000E-01
      9.00000000E+00  7.00000000E+00  6.87500000E-01
      9.50000000E+00  7.00000000E+00  6.77500000E-01
      1.00000000E+01  7.00000000E+00  6.76666667E-01
      0.00000000E+00  6.50000000E+00  8.33333333E-01
      5.00000000E-01  6.50000000E+00  8.32500000E-01
      1.00000000E+00  6.50000000E+00  8.22500000E-01
      1.50000000E+00  6.50000000E+00  8.12500000E-01
      2.00000000E+00  6.50000000E+00  8.02500000E-01
      2.50000000E+00  6.50000000E+00  7.92500000E-01
      3.00000000E+00  6.50000000E+00  7.82500000E-01
      3.50000000E+00  6.50000000E+00  7.72500000E-01
      4.00000000E+00  6.50000000E+00  7.62500000E-01
      4.50000000E+00  6.50000000E+00  7.52500000E-01
      5.00000000E+00  6.50000000E+00  7.42500000E-01
      5.50000000E+00  6.50000000E+00  7.32500000E-01
      6.00000000E+00  6.50000000E+00  7.22500000E-01
      6.50000000E+00  6.50000000E+00  7.12500000E-01
      7.00000000E+00  6.50000000E+00  7.02500000E-01
      7.50000000E+00  6.50000000E+00  6.92500000E-01
      8.00000000E+00  6.50000000E+00  6.82500000E-01
      8.50000000E+00  6.50000000E+00  6.72500000E-01
      9.00000000E+00  6.50000000E+00  6.62500000E-01
      9.50000000E+00  6.50000000E+00  6.52500000E-01
      1.00000000E+01  6.50000000E+00  6.51666667E-01
      0.00000000E+00  6.00000000E+00  8.08333333E-01
      5.00000000E-01  6.00000000E+00  8.07500000E-01
      1.00000000E+00  6.00000000E+00  7.97500000E-01
      1.50000000E+00  6.00000000E+00  7.87500000E-01
      2.00000000E+00  6.00000000E+00  7.77500000E-01
      2.50000000E+00  6.00000000E+00  7.67500000E-01
      3.00000000E+00  6.00000000E+00  7.57500000E-01
      3.50000000E+00  6.00000000E+00  7.47500000E-01
      4.00000000E+00  6.00000000E+00  7.37500000E-01
      4.50000000E+00  6.00000000E+00  7.27500000E-01
      5.00000000E+00  6.00000000E+00  7.17500000E-01
      5.50000000E+00  6.00000000E+00  7.07500000E-01
      6.00000000E+00  6.00000000E+00  6.97500000E-01
      6.50000000E+00  6.00000000E+00  6.87500000E-01
      7.00000000E+00  6.00000000E+00  6.77500000E-01
      7.50000000E+00  6.00000000E+00  6.67500000E-01
      8.00000000E+00  6.00000000E+00  6.57500000E-01
[...]
POINT_DATA     7056
SCALARS pressure float
LOOKUP_TABLE default
 -0.16670230056939050     
 -0.16589816133024479     
 -0.16568902144106123     
 -0.16559651183535454     
 -0.16548026072950126     
 -0.16538489156717681     
 -0.16526998981444377     
 -0.16515960715860242     
 -0.16504131349633172     
 -0.16490751222842640     
 -0.16476055495623587     
 -0.16458136817652100     
 -0.16436569886400304     
 -0.16408992930717484     
 -0.16373123979844917     
 -0.16325409764398907     
 -0.16260976437488622     
 -0.16170263028470719     
 -0.16083259046220358     
 -0.15776744743528720     
 -0.15701790941725233     
 -0.16524978019787484     
 -0.16476564997557225     
 -0.16364346124553844     
 -0.16382593697443712     
 -0.16375276624211990     
 -0.16367414679763961     
 -0.16359521569352373     
 -0.16349927438321041     
 -0.16339014867001611     
 -0.16325275709614095     
 -0.16308617255012015     
 -0.16287379383912276     
 -0.16260089315445550     
 -0.16224091220109904     
 -0.16176040087855537     
 -0.16112127822439853     
 -0.16026534645793689     
 -0.15911366551225525     
 -0.15779759653441497     
 -0.15460943109237243     
 -0.15440354000262752     
 -0.16445979787598353     
 -0.16359623130830220     
 -0.16210909342504765     
 -0.16224559446060893     
 -0.16194595374226692     
 -0.16169073331176434     
 -0.16142671283972379     
 -0.16114278578734895     
 -0.16083232303959594     
 -0.16048347667503834     
 -0.16007572796699501     
 -0.15959084322536143     
 -0.15900146533480841     
 -0.15827425825692137     
 -0.15736960894201374     
 -0.15623577828532989     
 -0.15481175295580116     
 -0.15301764418858874     
 -0.15094894001792114     
 -0.14699065686779977     
 -0.14608595582942835     
 -0.16378041720282149     
 -0.16334235232463573     
 -0.16165257055527921     
 -0.16162355620448812     
 -0.16115444039922955     
 -0.16071868903253925     
 -0.16025313443219266     
 -0.15974758295398464     
 -0.15918630094704958     
 -0.15855119730588174     
 -0.15782173249732401     
 -0.15697157449155014     
 -0.15596742375419234     
 -0.15476919816673329     
 -0.15332757729905128     
 -0.15158563054023969     
 -0.14947752722567836     
 -0.14692711418612853     
 -0.14398256593418998     
 -0.13925969287737436     
 -0.13869485608059542     
 -0.16288105266951422     
 -0.16262799314438389     
 -0.16061470910206457     
 -0.16034231269581914     
 -0.15965251793468282     
 -0.15896707516379863     
 -0.15822759511847442     
 -0.15742255250163836     
 -0.15653342582648413     
 -0.15554133799252295     
 -0.15441808847762992     
 -0.15313179156697182     
 -0.15164197457879627     
 -0.14990187219279508     
 -0.14785456993267848     
 -0.14543640933524460     
 -0.14258586348021521     
 -0.13927247497699477     
 -0.13555773526853104     
 -0.13027514330557291     
 -0.12983996598746717     
 -0.16173897086544434     
 -0.16160896940011280     
 -0.15927198579955013     
 -0.15867709073558006     
 -0.15768344966710462     
 -0.15666347126829316     
 -0.15556778552684303     
 -0.15438197208436710     
 -0.15308434027135909     
 -0.15164922834881242     
 -0.15004466458117149     
 -0.14823092335647953     
 -0.14616068661922535     
 -0.14378143876064600     
 -0.14105059514242593     
 -0.13795397528609449     
 -0.13445438389613731     
 -0.13049462519023203     
 -0.12606513677963638     
 -0.12020470352989493     
 -0.11976944761059735     
 -0.16022228427023155     
 -0.16013324835342327     
 -0.15743556637967360     
 -0.15642758163471529     
 -0.15504922030499196     
 -0.15361430864440850     
 -0.15208129635707915     
 -0.15043039435322153     
 -0.14863659617908820     
 -0.14666801582557210     
 -0.14448689831433364     
 -0.14205679634364121     
 -0.13936021366891885     
 -0.13638093115610220     
 -0.13307064675037136     
 -0.12937827715495984     
 -0.12525066000869164     
 -0.12062490160433378     
 -0.11545213857657123     
 -0.10879093703860915     
 -0.10829618421254245     
 -0.15815633501948836     
 -0.15803377144183242     
 -0.15493799249150822     
 -0.15342214714356517     
 -0.15156792553432247     
 -0.14962768484816943     
 -0.14756312785884229     
 -0.14535049507552972     
 -0.14296393366407270     
 -0.14038930928908264     
 -0.13762831426583055     
 -0.13465327558863366     
 -0.13142095919435770     
 -0.12788713997634329     
 -0.12400037088830362     
 -0.11970299532682217     
 -0.11492005931603987     
 -0.10942092365311627     
 -0.10317326256838598     
  -9.5794511225981857E-002
  -9.5249234368373334E-002
 -0.15531876204785025     
 -0.15512636566263138     
 -0.15156974185248306     
 -0.14943760947512438     
 -0.14700152407290076     
 -0.14444822485885700     
 -0.14175478180886789     
 -0.13893437601673683     
 -0.13599105869617570     
 -0.13289536486063741     
 -0.12961428469978017     
 -0.12611019130027815     
 -0.12233720883544742     
 -0.11824614512952172     
 -0.11374890831313965     
 -0.10861944339958346     
 -0.10291101017178407     
  -9.6674668689693516E-002
  -8.9939887819749695E-002
  -8.1877870360596280E-002
  -8.1293708565186779E-002
 -0.15142795898909067     
 -0.15117394726458541     
 -0.14705158173326949     
 -0.14418029872912716     
 -0.14106098139906784     
 -0.13787539919399050     
 -0.13461681764505723     
 -0.13126318925826361     
 -0.12779129819291254     
 -0.12416998062486302     
 -0.12036272544924055     
 -0.11632586169060259     
 -0.11193692497987426     
 -0.10703144665372889     
 -0.10174269890894674     
  -9.6053377645435159E-002
  -8.9982557418967754E-002
  -8.3129943551035104E-002
  -7.5535431884593676E-002
  -6.7066645849844175E-002
  -6.6489718844691348E-002
 -0.14611125490969906     
 -0.14584181676694927     
 -0.14105405138935714     
 -0.13744665887317939     
 -0.13371949073880979     
 -0.12995419364710650     
 -0.12613169127397353     
 -0.12222885796726704     
 -0.11822224620443002     
 -0.11404946873739814     
 -0.10954214331743850     
 -0.10473208416385835     
  -9.9690192304658073E-002
  -9.4399816095024972E-002
  -8.8860118249075942E-002
  -8.2633070493673938E-002
  -7.5887568357559693E-002
  -6.8636179844079270E-002
  -6.1005695092075291E-002
  -5.2397007785489016E-002
  -5.1885876797587716E-002
 -0.13912214828107966     
 -0.13886928649002772     
 -0.13353289471917071     
 -0.12923103163998403     
 -0.12487292387486436     
 -0.12050408216466764     
 -0.11610416729642913     
 -0.11155581411929728     
 -0.10675670394673153     
 -0.10186816346418465     
  -9.6880347617940593E-002
  -9.1812578887546403E-002
  -8.6528829607824265E-002
  -8.0737024339644942E-002
  -7.4670382874801877E-002
  -6.8251293539587823E-002
  -6.1571630500604692E-002
  -5.4304498540318026E-002
  -4.6342907161966193E-002
  -3.7742425466902742E-002
  -3.7322004448267457E-002
 -0.13052812731210081     
 -0.13021531140067985     
 -0.12432215234763819     
 -0.11929646557119096     
 -0.11426543960031753     
 -0.10907081714916411     
 -0.10383590022000677     
  -9.8646824712574702E-002
  -9.3525997926257709E-002
  -8.8454938203108138E-002
  -8.3057184909447884E-002
  -7.7545385001834832E-002
  -7.1915694653055598E-002
  -6.6143758109923956E-002
  -6.0329897473489713E-002
  -5.3979693211568737E-002
  -4.7184180470426967E-002
  -3.9933890827837368E-002
  -3.2226305138191379E-002
  -2.3809407362025053E-002
  -2.3506688608468509E-002
 -0.12001804611665182     
 -0.11962178536090623     
 -0.11309742415477750     
 -0.10703147452291004     
 -0.10109520278610451     
  -9.5369894872943339E-002
  -8.9882950135873052E-002
  -8.4328134645609773E-002
  -7.8764277345480777E-002
  -7.3282815487023450E-002
  -6.7849742201927993E-002
  -6.2524993054995065E-002
  -5.7190942021683774E-002
  -5.1526712788757825E-002
  -4.5653137778967338E-002
  -3.9576538563282831E-002
  -3.3231003330657642E-002
  -2.6215136619159581E-002
  -1.8576682233595310E-002
  -1.1002426820999394E-002
  -1.1044035920330660E-002
 -0.10686908059403631     
 -0.10639366593725191     
  -9.9039880826310267E-002
  -9.2448334339627958E-002
  -8.6142173688103535E-002
  -7.9878725784719759E-002
  -7.3910660211129159E-002
  -6.8219047310556682E-002
  -6.2824675940413369E-002
  -5.7662121242848814E-002
  -5.2372233474505467E-002
  -4.7136455020263479E-002
  -4.1952621535279122E-002
  -3.6796435277163378E-002
  -3.1424897137243030E-002
  -2.5831220830869445E-002
  -1.9916672928937201E-002
  -1.3055115297298124E-002
  -3.0590087906383306E-003
   2.2293699396891630E-005
  -1.0194182736425932E-003
  -9.1221287358401515E-002
  -9.0764074969341316E-002
  -8.2902573718698455E-002
  -7.5630344879648287E-002
  -6.8873554911120571E-002
  -6.2704991595331119E-002
  -5.7036267494783049E-002
  -5.1516245838245621E-002
  -4.6254426752557615E-002
  -4.1248044294430436E-002
  -3.6461977879914190E-002
  -3.1763604394984143E-002
  -2.7145896184064929E-002
  -2.2491465879354879E-002
  -1.7588356545686166E-002
  -1.2829900529851813E-002
  -7.9831126597726815E-003
   1.5780623202246930E-004
   9.2456978356215286E-004
   9.4837014492558025E-004
   4.8980058796637479E-004
  -7.2911553641514942E-002
  -7.2484522750357216E-002
  -6.4459677919317157E-002
  -5.7286676182685764E-002
  -5.0485474381597804E-002
  -4.4354133805960455E-002
  -3.9026245046485886E-002
  -3.4209301049000100E-002
  -2.9544355747862596E-002
  -2.5050380089307742E-002
  -2.0562897953817248E-002
  -1.6494605035858298E-002
  -1.2915607475495397E-002
  -9.1897878472868323E-003
  -3.0084981865016462E-003
   2.8582021715796695E-004
   7.4228983592672664E-004
   1.2841730192489997E-003
   2.3834315178921069E-003
   2.4573134611992954E-003
   1.6516272256715157E-003
  -5.2815876053977015E-002
  -5.2438440568965565E-002
  -4.4423055392522080E-002
  -3.7315933996931352E-002
  -3.0807943411310122E-002
  -2.4835261431301884E-002
  -2.0493179541399793E-002
  -1.6796826162750845E-002
  -1.3201999483175205E-002
  -9.1784107937864894E-003
  -3.7100033205841958E-003
   1.9240296684694909E-004
   5.2444822832471293E-004
   8.6181478572467632E-004
   1.2096652535645092E-003
   1.6663925404275721E-003
   2.3551404784079894E-003
   3.0641222725923526E-003
   4.1260166006814730E-003
   3.7307137535465464E-003
   2.5461113028837964E-003
  -3.0576558854202851E-002
  -2.9919486536373482E-002
  -2.2824436259311395E-002
  -1.5498312418541620E-002
  -8.7539215339901451E-003
   1.0828879602994672E-004
   5.1279699116341636E-004
   8.9747811430849350E-004
   1.2371665637058503E-003
   1.5712554712076282E-003
   1.9006702309678849E-003
   2.2765263312373358E-003
   2.7829631658740973E-003
   3.2967967475115000E-003
   3.8164303148961513E-003
   4.3253275626023843E-003
   4.8443982806602543E-003
   5.4119241177705306E-003
   6.4043156600610577E-003
   5.3327067191528341E-003
   3.5985146348199580E-003
  -6.2063795035261762E-003
   4.7205128228238323E-005
   1.0604711354240100E-003
   1.7062016680370268E-003
   2.0342047620733046E-003
   2.3845870934082391E-003
   2.8458859743528595E-003
   3.3072287671016168E-003
   3.6601676684559631E-003
   3.9806262198844415E-003
   4.2847617877379328E-003
   4.5505284902281843E-003
   4.7761722788060672E-003
   4.9986189281101146E-003
   5.2394854271593794E-003
   5.5103335371120797E-003
   5.8300508880245027E-003
   6.2156553577928228E-003
   6.8220737727949822E-003
   6.6983905279906697E-003
   4.9992370207179422E-003
  -4.6549574170917641E-004
   1.8194866674015194E-004
   1.3989803795612442E-003
   3.3085250526794651E-003
   3.8384046081041024E-003
   4.3628116307426034E-003
   4.7062482569458948E-003
   4.8868049735669595E-003
   4.9532310563822953E-003
   4.9726966763609364E-003
   4.9777115389506498E-003
   4.9854213946313600E-003
   5.0071814637278082E-003
   5.0510731063629901E-003
   5.1218729674891664E-003
   5.2238846632865332E-003
   5.3648679512131123E-003
   5.5589782964564549E-003
   5.8549445705765825E-003
   6.1575550076935484E-003
   6.2188630464007797E-003
 -0.16086723762638477     
 -0.16011226637844814     
 -0.15990318540307957     
 -0.15981062482936598     
 -0.15969430462998527     
 -0.15959887556413976     
 -0.15948395670972271     
 -0.15937352948058361     
 -0.15925516197864317     
 -0.15912124292218605     
 -0.15897410181150076     
 -0.15879467423224231     
 -0.15857868377279163     
 -0.15830251317932889     
 -0.15794332151049154     
 -0.15746553385944478     
 -0.15682033221743011     
 -0.15591220892969179     
 -0.15503957704087051     
 -0.15197270046590419     
 -0.15132319599879698     
 -0.15947085043605053     
 -0.15908146265004366     
 -0.15795934705110284     
 -0.15814250275339109     
 -0.15806979714943706     
 -0.15799150426707465     
 -0.15791275692738721     
 -0.15781689775828142     
 -0.15770774113495895     
 -0.15757024627259064     
 -0.15740347308647809     
 -0.15719082909397017     
 -0.15691755998740434     
 -0.15655706515188839     
 -0.15607581029357051     
 -0.15543556711042161     
 -0.15457799945353978     
 -0.15342420071541998     
 -0.15210466002369988     
 -0.14891467570121492     
 -0.14880207575265902     
 -0.15868369288721118     
 -0.15791851990050382     
 -0.15643120892726231     
 -0.15656815090754175     
 -0.15626864680052976     
 -0.15601333962442035     
 -0.15574919631477330     
 -0.15546510435754071     
 -0.15515442394220261     
 -0.15480529200103080     
 -0.15439716213692886     
 -0.15391171444750593     
 -0.15332148872700221     
 -0.15259301973060871     
 -0.15168660475819767     
 -0.15055054466648576     
 -0.14912381146381790     
 -0.14732656976448652     
 -0.14525351975779729     
 -0.14129230608379006     
 -0.14047619988813620     
 -0.15800455766480578     
 -0.15766593149921129     
 -0.15597554225576499     
 -0.15594698848074062     
 -0.15547796812040171     
 -0.15504212627014519     
 -0.15457645132167422     
 -0.15407067172835906     
 -0.15350899441557492     
 -0.15287323307664122     
 -0.15214272866075890     
 -0.15129106539856599     
 -0.15028495141658471     
 -0.14908428382701297     
 -0.14763965589291675     
 -0.14589413962273853     
 -0.14378194100417110     
 -0.14122690016542550     
 -0.13827585913224405     
 -0.13354435297080913     
 -0.13306221006147259     
 -0.15710516610451439     
 -0.15695193763842186     
 -0.15493789954840956     
 -0.15466587267391432     
 -0.15397620081039803     
 -0.15329062156864132     
 -0.15255078118280699     
 -0.15174500557813478     
 -0.15085469180801511     
 -0.14986094011881806     
 -0.14873555963358134     
 -0.14744656130514530     
 -0.14595342951112197     
 -0.14420941756195035     
 -0.14215761356220938     
 -0.13973419357153621     
 -0.13687647490598803     
 -0.13355186063084623     
 -0.12982369681302999     
 -0.12452990686489357     
 -0.12417268426920090     
 -0.15596266608070850     
 -0.15593294902677401     
 -0.15359518481111373     
 -0.15300037806853334     
 -0.15200652337557555     
 -0.15098575418090926     
 -0.14988879542917624     
 -0.14870122732375851     
 -0.14740128774595293     
 -0.14596322991527899     
 -0.14435508081073956     
 -0.14253713283947386     
 -0.14046200593403704     
 -0.13807669749552423     
 -0.13533691075770896     
 -0.13222828524047064     
 -0.12871597924933639     
 -0.12474267132694589     
 -0.12029805729032414     
 -0.11442616090377399     
 -0.11406095553015033     
 -0.15444512556497983     
 -0.15445674124173414     
 -0.15175772174304392     
 -0.15074894053156304     
 -0.14936940299705664     
 -0.14793266773449071     
 -0.14639719873884630     
 -0.14474315236086469     
 -0.14294554797222855     
 -0.14097248091202763     
 -0.13878596955439382     
 -0.13634851476910304     
 -0.13364120512468602     
 -0.13064984582356096     
 -0.12732687491136049     
 -0.12362100254272101     
 -0.11947917181280618     
 -0.11483848916591807     
 -0.10965101328921491     
 -0.10298810777013094     
 -0.10255846693634989     
 -0.15237731246505964     
 -0.15235468526113838     
 -0.14925653273730774     
 -0.14773877581130410     
 -0.14588209598122012     
 -0.14393855025253111     
 -0.14186999547533655     
 -0.13965256466643208     
 -0.13725979899842911     
 -0.13467600472566418     
 -0.13190342565206473     
 -0.12891627330250333     
 -0.12567118846919414     
 -0.12212397902189680     
 -0.11822326769265643     
 -0.11391130903870139     
 -0.10911524793640766     
 -0.10360868577080350     
  -9.7341842256547115E-002
  -8.9948778365663243E-002
  -8.9453667736509840E-002
 -0.14953617840135436     
 -0.14944097757832281     
 -0.14588134266971919     
 -0.14374568723988881     
 -0.14130550189005744     
 -0.13874700110273697     
 -0.13604613832217444     
 -0.13321488551353289     
 -0.13025971627530888     
 -0.12715170814362714     
 -0.12385772980277228     
 -0.12034034160280593     
 -0.11655361021592624     
 -0.11244846299654818     
 -0.10793994499514327     
 -0.10280180459354199     
  -9.7075534871209582E-002
  -9.0819918033471531E-002
  -8.4064098891104680E-002
  -7.5997423375513545E-002
  -7.5454124809979733E-002
 -0.14563914517562257     
 -0.14547768574527009     
 -0.14135191421873189     
 -0.13847475505554988     
 -0.13534665226140097     
 -0.13214921394142809     
 -0.12887837415555958     
 -0.12551203681652420     
 -0.12202707088714281     
 -0.11839239638181183     
 -0.11457136940344220     
 -0.11052158188208748     
 -0.10612431286403742     
 -0.10120675036810720     
  -9.5901186453293763E-002
  -9.0193547847533778E-002
  -8.4103594132700230E-002
  -7.7240503720376746E-002
  -6.9627413758965390E-002
  -6.1146889455166144E-002
  -6.0595478525715403E-002
 -0.14031256332360850     
 -0.14012971897994020     
 -0.13533382967638427     
 -0.13171342833188043     
 -0.12797338093471783     
 -0.12419479781263296     
 -0.12035884356142092     
 -0.11644235199329940     
 -0.11242206610524341     
 -0.10823857558928240     
 -0.10372411843478724     
  -9.8898488792479519E-002
  -9.3840581775350193E-002
  -8.8532495964317920E-002
  -8.2976733762236438E-002
  -7.6739224154714666E-002
  -6.9977325954599837E-002
  -6.2710000697215718E-002
  -5.5060895264920848E-002
  -4.6446764155369434E-002
  -4.5952135865109094E-002
 -0.13330186027859811     
 -0.13312711673526118     
 -0.12777911110959819     
 -0.12346284968000348     
 -0.11909062490937565     
 -0.11470741958814186     
 -0.11029470899811393     
 -0.10573906678231904     
 -0.10092743159853597     
  -9.6023510386448782E-002
  -9.1019432495831928E-002
  -8.5934898114246552E-002
  -8.0643804301780753E-002
  -7.4837282729953228E-002
  -6.8755836476997581E-002
  -6.2322399484484051E-002
  -5.5626926308859521E-002
  -4.8350942876775375E-002
  -4.0378130432084713E-002
  -3.1770411370210652E-002
  -3.1356939580137980E-002
 -0.12468064924292344     
 -0.12443603938918958     
 -0.11853012853589161     
 -0.11348904092630868     
 -0.10844648648504018     
 -0.10324389809967284     
  -9.7993530890731845E-002
  -9.2788758410144501E-002
  -8.7651563859829640E-002
  -8.2567436027613850E-002
  -7.7160771906802483E-002
  -7.1635768621410717E-002
  -6.5993907940970903E-002
  -6.0208877713996412E-002
  -5.4381372198103760E-002
  -4.8024481929077031E-002
  -4.1219727491730987E-002
  -3.3960348256728466E-002
  -2.6246071642702248E-002
  -1.7825361792842151E-002
  -1.7525883093112610E-002
 -0.11414125458121924     
 -0.11380064156278405     
 -0.10726880106447560     
 -0.10119069959478413     
  -9.5238514530662441E-002
  -8.9496458604565121E-002
  -8.3993878305763880E-002
  -7.8431877648672654E-002
  -7.2855293253331968E-002
  -6.7362071921751504E-002
  -6.1917140617245230E-002
  -5.6580503416562324E-002
  -5.1239660811642454E-002
  -4.5567092530558927E-002
  -3.9686329526135516E-002
  -3.3602568739730082E-002
  -2.7251215360292833E-002
  -2.0228647186235637E-002
  -1.2587224054530615E-002
  -5.0118691167562917E-003
  -5.0550645371522911E-003
 -0.10096734998372948     
 -0.10053692962115982     
  -9.3168483864264739E-002