# vtk DataFile Version 2.0
3D Unstructured Grid of Linear Triangles
ASCII
DATASET UNSTRUCTURED_GRID
FIELD FieldData  1
TIME 1 1 double
        7200.00000
POINTS     7056 float
      0.00000000E+00  1.00000000E+01  1.00000000E+00
      5.00000000E-01  1.00000000E+01  9.93333333E-01
      1.00000000E+00  1.00000000E+01  9.83333333E-01
      1.50000000E+00  1.00000000E+01  9.73333333E-01
      2.00000000E+00  1.00000000E+01  9.63333333E-01
      2.50000000E+00  1.00000000E+01  9.53333333E-01
      3.00000000E+00  1.00000000E+01  9.43333333E-01
      3.50000000E+00  1.00000000E+01  9.33333333E-01
      4.00000000E+00  1.00000000E+01  9.23333333E-01
      4.50000000E+00  1.00000000E+01  9.13333333E-01
      5.00000000E+00  1.00000000E+01  9.03333333E-01
      5.50000000E+00  1.00000000E+01  8.93333333E-01
      6.00000000E+00  1.00000000E+01  8.83333333E-01
      6.50000000E+00  1.00000000E+01  8.73333333E-01
      7.00000000E+00  1.00000000E+01  8.63333333E-01
      7.50000000E+00  1.00000000E+01  8.53333333E-01
      8.00000000E+00  1.00000000E+01  8.43333333E-01
      8.50000000E+00  1.00000000E+01  8.33333333E-01
      9.00000000E+00  1.00000000E+01  8.23333333E-01
      9.50000000E+00  1.00000000E+01  8.13333333E-01
      1.00000000E+01  1.00000000E+01  8.10000000E-01
      0.00000000E+00  9.50000000E+00  9.83333333E-01
      5.00000000E-01  9.50000000E+00  9.82500000E-01
      1.00000000E+00  9.50000000E+00  9.72500000E-01
      1.50000000E+00  9.50000000E+00  9.62500000E-01
      2.00000000E+00  9.50000000E+00  9.52500000E-01
      2.50000000E+00  9.50000000E+00  9.42500000E-01
      3.00000000E+00  9.50000000E+00  9.32500000E-01
      3.50000000E+00  9.50000000E+00  9.22500000E-01
      4.00000000E+00  9.50000000E+00  9.12500000E-01
      4.50000000E+00  9.50000000E+00  9.02500000E-01
      5.00000000E+00  9.50000000E+00  8.92500000E-01
      5.50000000E+00  9.50000000E+00  8.82500000E-01
      6.00000000E+00  9.50000000E+00  8.72500000E-01
      6.50000000E+00  9.50000000E+00  8.62500000E-01
      7.00000000E+00  9.50000000E+00  8.52500000E-01
      7.50000000E+00  9.50000000E+00  8.42500000E-01
      8.00000000E+00  9.50000000E+00  8.32500000E-01
      8.50000000E+00  9.50000000E+00  8.22500000E-01
      9.00000000E+00  9.50000000E+00  8.12500000E-01
      9.50000000E+00  9.50000000E+00  8.02500000E-01
      1.00000000E+01  9.50000000E+00  8.01666667E-01
      0.00000000E+00  9.00000000E+00  9.58333333E-01
      5.00000000E-01  9.00000000E+00  9.57500000E-01
      1.00000000E+00  9.00000000E+00  9.47500000E-01
      1.50000000E+00  9.00000000E+00  9.37500000E-01
      2.00000000E+00  9.00000000E+00  9.27500000E-01
      2.50000000E+00  9.00000000E+00  9.17500000E-01
      3.00000000E+00  9.00000000E+00  9.07500000E-01
      3.50000000E+00  9.00000000E+00  8.97500000E-01
      4.00000000E+00  9.00000000E+00  8.87500000E-01
      4.50000000E+00  9.00000000E+00  8.77500000E-01
      5.00000000E+00  9.00000000E+00  8.67500000E-01
      5.50000000E+00  9.00000000E+00  8.57500000E-01
      6.00000000E+00  9.00000000E+00  8.47500000E-01
      6.50000000E+00  9.00000000E+00  8.37500000E-01
      7.00000000E+00  9.00000000E+00  8.27500000E-01
      7.50000000E+00  9.00000000E+00  8.17500000E-01
      8.00000000E+00  9.00000000E+00  8.07500000E-01
      8.50000000E+00  9.00000000E+00  7.97500000E-01
      9.00000000E+00  9.00000000E+00  7.87500000E-01
      9.50000000E+00  9.00000000E+00  7.77500000E-01
      1.00000000E+01  9.00000000E+00  7.76666667E-01
      0.00000000E+00  8.50000000E+00  9.33333333E-01
      5.00000000E-01  8.50000000E+00  9.32500000E-01
      1.00000000E+00  8.50000000E+00  9.22500000E-01
      1.50000000E+00  8.50000000E+00  9.12500000E-01
      2.00000000E+00  8.50000000E+00  9.02500000E-01
      2.50000000E+00  8.50000000E+00  8.92500000E-01
      3.00000000E+00  8.50000000E+00  8.82500000E-01
      3.50000000E+00  8.50000000E+00  8.72500000E-01
      4.00000000E+00  8.50000000E+00  8.62500000E-01
      4.50000000E+00  8.50000000E+00  8.52500000E-01
      5.00000000E+00  8.50000000E+00  8.42500000E-01
      5.50000000E+00  8.50000000E+00  8.32500000E-01
      6.00000000E+00  8.50000000E+00  8.22500000E-01
      6.50000000E+00  8.50000000E+00  8.12500000E-01
      7.00000000E+00  8.50000000E+00  8.02500000E-01
      7.50000000E+00  8.50000000E+00  7.92500000E-01
      8.00000000E+00  8.50000000E+00  7.82500000E-01
      8.50000000E+00  8.50000000E+00  7.72500000E-01
      9.00000000E+00  8.50000000E+00  7.62500000E-01
      9.50000000E+00  8.50000000E+00  7.52500000E-01
      1.00000000E+01  8.50000000E+00  7.51666667E-01
      0.00000000E+00  8.00000000E+00  9.08333333E-01
      5.00000000E-01  8.00000000E+00  9.07500000E-01
      1.00000000E+00  8.00000000E+00  8.97500000E-01
      1.50000000E+00  8.00000000E+00  8.87500000E-01
      2.00000000E+00  8.00000000E+00  8.77500000E-01
      2.50000000E+00  8.00000000E+00  8.67500000E-01
      3.00000000E+00  8.00000000E+00  8.57500000E-01
      3.50000000E+00  8.00000000E+00  8.47500000E-01
      4.00000000E+00  8.00000000E+00  8.37500000E-01
      4.50000000E+00  8.00000000E+00  8.27500000E-01
      5.00000000E+00  8.00000000E+00  8.17500000E-01
      5.50000000E+00  8.00000000E+00  8.07500000E-01
      6.00000000E+00  8.00000000E+00  7.97500000E-01
      6.50000000E+00  8.00000000E+00  7.87500000E-01
      7.00000000E+00  8.00000000E+00  7.77500000E-01
      7.50000000E+00  8.00000000E+00  7.67500000E-01
      8.00000000E+00  8.00000000E+00  7.57500000E-01
      8.50000000E+00  8.00000000E+00  7.47500000E-01
      9.00000000E+00  8.00000000E+00  7.37500000E-01
      9.50000000E+00  8.00000000E+00  7.27500000E-01
      1.00000000E+01  8.00000000E+00  7.26666667E-01
      0.00000000E+00  7.50000000E+00  8.83333333E-01
      5.00000000E-01  7.50000000E+00  8.82500000E-01
      1.00000000E+00  7.50000000E+00  8.72500000E-01
      1.50000000E+00  7.50000000E+00  8.62500000E-01
      2.00000000E+00  7.50000000E+00  8.52500000E-01
      2.50000000E+00  7.50000000E+00  8.42500000E-01
      3.00000000E+00  7.50000000E+00  8.32500000E-01
      3.50000000E+00  7.50000000E+00  8.22500000E-01
      4.00000000E+00  7.50000000E+00  8.12500000E-01
      4.50000000E+00  7.50000000E+00  8.02500000E-01
      5.00000000E+00  7.50000000E+00  7.92500000E-01
      5.50000000E+00  7.50000000E+00  7.82500000E-01
      6.00000000E+00  7.50000000E+00  7.72500000E-01
      6.50000000E+00  7.50000000E+00  7.62500000E-01
      7.00000000E+00  7.50000000E+00  7.52500000E-01
      7.50000000E+00  7.50000000E+00  7.42500000E-01
      8.00000000E+00  7.50000000E+00  7.32500000E-01
      8.50000000E+00  7.50000000E+00  7.22500000E-01
      9.00000000E+00  7.50000000E+00  7.12500000E-01
      9.50000000E+00  7.50000000E+00  7.02500000E-01
      1.00000000E+01  7.50000000E+00  7.01666667E-01
      0.00000000E+00  7.00000000E+00  8.58333333E-01
      5.00000000E-01  7.00000000E+00  8.57500000E-01
      1.00000000E+00  7.00000000E+00  8.47500000E-01
      1.50000000E+00  7.00000000E+00  8.37500000E-01
      2.00000000E+00  7.00000000E+00  8.27500000E-01
      2.50000000E+00  7.00000000E+00  8.17500000E-01
      3.00000000E+00  7.00000000E+00  8.07500000E-01
      3.50000000E+00  7.00000000E+00  7.97500000E-01
      4.00000000E+00  7.00000000E+00  7.87500000E-01
      4.50000000E+00  7.00000000E+00  7.77500000E-01
      5.00000000E+00  7.00000000E+00  7.67500000E-01
      5.50000000E+00  7.00000000E+00  7.57500000E-01
      6.00000000E+00  7.00000000E+00  7.47500000E-01
      6.50000000E+00  7.00000000E+00  7.37500000E-01
      7.00000000E+00  7.00000000E+00  7.27500000E-01
      7.50000000E+00  7.00000000E+00  7.17500000E-01
      8.00000000E+00  7.00000000E+00  7.07500000E-01
      8.50000000E+00  7.00000000E+00  6.97500000E-01
      9.00000000E+00  7.00000000E+00  6.87500000E-01
      9.50000000E+00  7.00000000E+00  6.77500000E-01
      1.00000000E+01  7.00000000E+00  6.76666667E-01
      0.00000000E+00  6.50000000E+00  8.33333333E-01
      5.00000000E-01  6.50000000E+00  8.32500000E-01
      1.00000000E+00  6.50000000E+00  8.22500000E-01
      1.50000000E+00  6.50000000E+00  8.12500000E-01
      2.00000000E+00  6.50000000E+00  8.02500000E-01
      2.50000000E+00  6.50000000E+00  7.92500000E-01
      3.00000000E+00  6.50000000E+00  7.82500000E-01
      3.50000000E+00  6.50000000E+00  7.72500000E-01
      4.00000000E+00  6.50000000E+00  7.62500000E-01
      4.50000000E+00  6.50000000E+00  7.52500000E-01
      5.00000000E+00  6.50000000E+00  7.42500000E-01
      5.50000000E+00  6.50000000E+00  7.32500000E-01
      6.00000000E+00  6.50000000E+00  7.22500000E-01
      6.50000000E+00  6.50000000E+00  7.12500000E-01
      7.00000000E+00  6.50000000E+00  7.02500000E-01
      7.50000000E+00  6.50000000E+00  6.92500000E-01
      8.00000000E+00  6.50000000E+00  6.82500000E-01
      8.50000000E+00  6.50000000E+00  6.72500000E-01
      9.00000000E+00  6.50000000E+00  6.62500000E-01
      9.50000000E+00  6.50000000E+00  6.52500000E-01
      1.00000000E+01  6.50000000E+00  6.51666667E-01
      0.00000000E+00  6.00000000E+00  8.08333333E-01
      5.00000000E-01  6.00000000E+00  8.07500000E-01
      1.00000000E+00  6.00000000E+00  7.97500000E-01
      1.50000000E+00  6.00000000E+00  7.87500000E-01
      2.00000000E+00  6.00000000E+00  7.77500000E-01
      2.50000000E+00  6.00000000E+00  7.67500000E-01
      3.00000000E+00  6.00000000E+00  7.57500000E-01
      3.50000000E+00  6.00000000E+00  7.47500000E-01
      4.00000000E+00  6.00000000E+00  7.37500000E-01
      4.50000000E+00  6.00000000E+00  7.27500000E-01
      5.00000000E+00  6.00000000E+00  7.17500000E-01
      5.50000000E+00  6.00000000E+00  7.07500000E-01
      6.00000000E+00  6.00000000E+00  6.97500000E-01
      6.50000000E+00  6.00000000E+00  6.87500000E-01
      7.00000000E+00  6.00000000E+00  6.77500000E-01
      7.50000000E+00  6.00000000E+00  6.67500000E-01
      8.00000000E+00  6.00000000E+00  6.57500000E-01
[...]
POINT_DATA     7056
SCALARS pressure float
LOOKUP_TABLE default
 -0.15938703843575067     
 -0.15859999664389532     
 -0.15839045001555610     
 -0.15828507132252775     
 -0.15816473986042937     
 -0.15805201639806257     
 -0.15793406746196334     
 -0.15781162920404357     
 -0.15769037173211872     
 -0.15754757510798409     
 -0.15738720865547282     
 -0.15720113633446417     
 -0.15696951657154823     
 -0.15667673524744158     
 -0.15629513147333715     
 -0.15578448874145878     
 -0.15509912300170101     
 -0.15413850836355714     
 -0.15318174354836736     
 -0.14999010144429353     
 -0.14915496162365210     
 -0.15796265675767082     
 -0.15750439555183934     
 -0.15636845569042188     
 -0.15652089671154493     
 -0.15642295109145538     
 -0.15633436952850271     
 -0.15623651545862563     
 -0.15612997096540762     
 -0.15599695665195343     
 -0.15584685157486949     
 -0.15565789708869909     
 -0.15542504365398421     
 -0.15512482957144810     
 -0.15473564465018858     
 -0.15422186536633170     
 -0.15354236020389911     
 -0.15263896332099672     
 -0.15142525599288681     
 -0.15001346037558280     
 -0.14668717923931060     
 -0.14650100015165138     
 -0.15713161318040811     
 -0.15626245871696604     
 -0.15476461111154716     
 -0.15484476916359630     
 -0.15452570904676463     
 -0.15424604062633876     
 -0.15395410787178646     
 -0.15364373570037873     
 -0.15330275022056031     
 -0.15292119450007546     
 -0.15248007019617374     
 -0.15195919405005176     
 -0.15133076142754645     
 -0.15056251309337218     
 -0.14960809411112647     
 -0.14841473722752926     
 -0.14691421957315651     
 -0.14501976249518445     
 -0.14280210050810435     
 -0.13869525734449331     
 -0.13793418598798077     
 -0.15637308865939700     
 -0.15591681047341252     
 -0.15420262776947211     
 -0.15410699419787194     
 -0.15359877004028943     
 -0.15311822444740164     
 -0.15260556488007815     
 -0.15205219313510449     
 -0.15144428910480279     
 -0.15076226552604557     
 -0.14998680019013524     
 -0.14908802448657954     
 -0.14803234176357294     
 -0.14677609868584032     
 -0.14526582324980486     
 -0.14343854035647216     
 -0.14122398922815202     
 -0.13855409918788403     
 -0.13549991080987586     
 -0.13077695470902939     
 -0.13032952967088857     
 -0.15539290451501409     
 -0.15511409454133621     
 -0.15306317724759855     
 -0.15270124273088365     
 -0.15194647151105262     
 -0.15119408568835746     
 -0.15038993613363996     
 -0.14952311813821675     
 -0.14857515248719616     
 -0.14752460517626212     
 -0.14634319872127710     
 -0.14499681751862900     
 -0.14344147503742546     
 -0.14162647933987374     
 -0.13949571877616385     
 -0.13700491239316004     
 -0.13412779540872319     
 -0.13081115562629966     
 -0.12705563844209125     
 -0.12175957074330751     
 -0.12135983025167556     
 -0.15414740903895147     
 -0.15397598685349642     
 -0.15158085181198974     
 -0.15087596087600313     
 -0.14979922240127591     
 -0.14869584250830928     
 -0.14752257934027185     
 -0.14626252422145516     
 -0.14489450718041005     
 -0.14339079735784963     
 -0.14171672172741806     
 -0.13983299364360871     
 -0.13770240722644650     
 -0.13530121378082149     
 -0.13259426077493194     
 -0.12952484994169058     
 -0.12603523295686853     
 -0.12206222962764865     
 -0.11756892070632138     
 -0.11161168277064265     
 -0.11117848307698495     
 -0.15249889304134859     
 -0.15235722280169825     
 -0.14959173058976960     
 -0.14845495063468120     
 -0.14697555869992121     
 -0.14544386818209681     
 -0.14382049317356271     
 -0.14208409389500706     
 -0.14020980756168988     
 -0.13817282822773105     
 -0.13595724433201295     
 -0.13354721767733674     
 -0.13090081218077393     
 -0.12796855164234516     
 -0.12469795049789183     
 -0.12102853381230533     
 -0.11689021731726851     
 -0.11216975023449827     
 -0.10663255080582866     
  -9.9731738276288992E-002
  -9.9225218025426026E-002
 -0.15027424488283189     
 -0.15011627935393615     
 -0.14693593183019385     
 -0.14527314422373197     
 -0.14330261114361711     
 -0.14125202291536984     
 -0.13908929995552466     
 -0.13680762715139039     
 -0.13441003505843502     
 -0.13187706642172745     
 -0.12917183829357023     
 -0.12625466500340723     
 -0.12307913478594470     
 -0.11959009670949189     
 -0.11572253695912642     
 -0.11135386747982241     
 -0.10627363463401486     
 -0.10059372117475517     
  -9.4336857392312470E-002
  -8.7027515125756932E-002
  -8.6496816890168082E-002
 -0.14725869280867376     
 -0.14708295565880947     
 -0.14340826017076683     
 -0.14111488004706910     
 -0.13855697061127162     
 -0.13592968046942677     
 -0.13323588148160673     
 -0.13045612853565258     
 -0.12756291373413189     
 -0.12452532951817996     
 -0.12130418619669600     
 -0.11785238176546992     
 -0.11410553487499052     
 -0.10992048721639472     
 -0.10518046363051801     
 -0.10000273259682556     
  -9.4359955308846166E-002
  -8.8240850416478028E-002
  -8.1107787448774629E-002
  -7.2928427580401425E-002
  -7.2338967493913359E-002
 -0.14318181519660617     
 -0.14301420035140966     
 -0.13874764069008563     
 -0.13577209045615865     
 -0.13264728750280591     
 -0.12948596474054591     
 -0.12626378936675725     
 -0.12295755020568135     
 -0.11953566972888720     
 -0.11595963573107976     
 -0.11214944491068514     
 -0.10795128553949182     
 -0.10341228400303061     
  -9.8574426702341802E-002
  -9.3414383479790961E-002
  -8.7897055957697826E-002
  -8.1543126487756301E-002
  -7.4608606045590012E-002
  -6.7087735443924948E-002
  -5.9019249638820749E-002
  -5.8540196241360559E-002
 -0.13777280647971418     
 -0.13763898287229875     
 -0.13283784760739931     
 -0.12922195212700288     
 -0.12551020747730687     
 -0.12177151102507068     
 -0.11797942437442302     
 -0.11409509917302964     
 -0.11000288610140989     
 -0.10563311201488534     
 -0.10111507654231476     
  -9.6425959613737122E-002
  -9.1572135579875633E-002
  -8.6416712751675465E-002
  -8.0623358732022588E-002
  -7.4465466761468438E-002
  -6.7880833684243733E-002
  -6.0995355085685501E-002
  -5.3271473528470198E-002
  -4.4653581098053230E-002
  -4.4143175736917901E-002
 -0.13105434297185134     
 -0.13089080777600223     
 -0.12556618708750991     
 -0.12125508748165011     
 -0.11690029495563030     
 -0.11249724421977771     
 -0.10789468519292356     
 -0.10320253463542466     
  -9.8487944863042645E-002
  -9.3754424150470556E-002
  -8.8989267074391171E-002
  -8.3848650398259686E-002
  -7.8442155745254594E-002
  -7.2837921650108689E-002
  -6.6978339333253464E-002
  -6.0982993237366875E-002
  -5.4391369874404800E-002
  -4.7204512998749150E-002
  -3.9474627784975416E-002
  -3.1107313616322189E-002
  -3.0760800138506721E-002
 -0.12280673372717102     
 -0.12253218805389929     
 -0.11664082634688164     
 -0.11150659989291486     
 -0.10619167387908184     
 -0.10094721374097729     
  -9.5808697140131766E-002
  -9.0807615182911056E-002
  -8.5754513506878488E-002
  -8.0484551787972688E-002
  -7.5222384985290713E-002
  -6.9897181291032395E-002
  -6.4554875361904393E-002
  -5.9249211771437993E-002
  -5.3379592324919935E-002
  -4.7223366988938378E-002
  -4.0714951794195979E-002
  -3.3921728202479587E-002
  -2.6388009450077281E-002
  -1.8287432224211374E-002
  -1.8112656632166921E-002
 -0.11256850538571818     
 -0.11219472859247698     
 -0.10534988634894588     
  -9.9257827689774952E-002
  -9.3426160445504169E-002
  -8.7858195336783282E-002
  -8.2153202233825967E-002
  -7.6600227649625083E-002
  -7.1191202515154081E-002
  -6.5943925228894099E-002
  -6.0929522067952900E-002
  -5.5788071737111332E-002
  -5.0479786946304769E-002
  -4.5035333131497636E-002
  -3.9489906235103685E-002
  -3.3835383529290067E-002
  -2.7668450395254538E-002
  -2.1149905058404188E-002
  -1.3965748793747335E-002
  -6.9519600194159741E-003
  -7.0715115783400086E-003
  -9.9511303985088728E-002
  -9.9074360907424774E-002
  -9.1833634175387494E-002
  -8.5196438609116618E-002
  -7.8672564525937808E-002
  -7.2518892238703642E-002
  -6.6737571769053955E-002
  -6.1383962660203198E-002
  -5.6177784100726297E-002
  -5.0992289765136464E-002
  -4.5946439046341533E-002
  -4.1036194653264017E-002
  -3.6266149612603278E-002
  -3.1265399853635210E-002
  -2.6127057316963045E-002
  -2.0841551456744128E-002
  -1.5044822248541178E-002
  -9.3205584100842457E-003
   2.3473118254161411E-004
   3.4698344867880796E-004
   1.9800744707737151E-004
  -8.4369925253929931E-002
  -8.3923372077732455E-002
  -7.5937266140636200E-002
  -6.8730302196181856E-002
  -6.2233582232527618E-002
  -5.6280114117187252E-002
  -5.0580751136416358E-002
  -4.5237272857356368E-002
  -4.0246375694119117E-002
  -3.5584346943437276E-002
  -3.1011411902922163E-002
  -2.6623218967963703E-002
  -2.2265128636468116E-002
  -1.7741532351674361E-002
  -1.3256294151546081E-002
  -8.7704573174410844E-003
  -3.0771514342696078E-006
   4.2597276540561865E-004
   1.2861812373597618E-003
   1.4237482308399824E-003
   9.6063757269159074E-004
  -6.6590307120844572E-002
  -6.6230566489550322E-002
  -5.8357747853429294E-002
  -5.1000236153074335E-002
  -4.4390887632442089E-002
  -3.8737472087668548E-002
  -3.3705915731873128E-002
  -2.8898420466512267E-002
  -2.4395453563742141E-002
  -1.9922823099641353E-002
  -1.6059507963244849E-002
  -1.2676093889987590E-002
  -9.0607217803641681E-003
  -3.3125931703715961E-003
   2.2300906670913890E-004
   6.1528283724465651E-004
   1.0398995894767133E-003
   1.6192412539017436E-003
   2.8029535026955410E-003
   2.7633926739395105E-003
   1.9281488777834969E-003
  -4.7142763794894051E-002
  -4.6895588301372609E-002
  -3.8883371880223214E-002
  -3.1836556957482130E-002
  -2.5188234312720454E-002
  -2.0491474790909941E-002
  -1.6563112427125146E-002
  -1.2524078800305065E-002
  -8.6711562517591736E-003
  -2.0219885155838583E-003
   2.2352326775148759E-004
   5.3336125466394704E-004
   8.4020673615765212E-004
   1.1527874508936978E-003
   1.5441172762012186E-003
   2.1251287256885461E-003
   2.7658073937163381E-003
   3.3960018145514814E-003
   4.4002153184315770E-003
   3.9596045314170009E-003
   2.7686568902933833E-003
  -2.5659825364527645E-002
  -2.5541620231354301E-002
  -1.7362629515679236E-002
  -1.0859363426072577E-002
   7.7818126299930861E-005
   4.9414044889060265E-004
   9.0247490282759990E-004
   1.2515455026266152E-003
   1.5851508952295626E-003
   1.9034560738804497E-003
   2.2733056310728062E-003
   2.7637155523185177E-003
   3.2379345322175626E-003
   3.7123342736853642E-003
   4.1718181397620282E-003
   4.6178923822385049E-003
   5.1035141384515878E-003
   5.6491035503171780E-003
   6.6293652823362133E-003
   5.4971314845638029E-003
   3.7408409350502768E-003
   1.4028909523667904E-004
   5.9764346336603285E-004
   1.7115000994089504E-003
   2.3157918460077801E-003
   2.6151576124802665E-003
   3.0464886135923176E-003
   3.5273238314794944E-003
   3.8708048320044331E-003
   4.1702080933913926E-003
   4.4453100453724559E-003
   4.6754312361194164E-003
   4.8641058472616485E-003
   5.0498112987623165E-003
   5.2501869263786565E-003
   5.4737118682507456E-003
   5.7318303735216470E-003
   6.0403377254198516E-003
   6.4140767803139579E-003
   7.0125714492789270E-003
   6.8755789346229843E-003
   5.1250185115129304E-003
   2.8787701444759852E-004
   8.1289083614379844E-004
   2.6773289853162020E-003
   4.4583913229775674E-003
   4.9187560299242877E-003
   5.2365006900527752E-003
   5.3778333856661850E-003
   5.4015106325029059E-003
   5.3668525651259591E-003
   5.3163613076649772E-003
   5.2708714583787749E-003
   5.2429473333490849E-003
   5.2403868451499445E-003
   5.2665104056400973E-003
   5.3236575242812494E-003
   5.4158474984387951E-003
   5.5506148230161576E-003
   5.7404971537511089E-003
   6.0333041435435353E-003
   6.3460695644589468E-003
   6.4288560143220697E-003
 -0.15355753418123663     
 -0.15282267642901950     
 -0.15261320138723061     
 -0.15250802429331886     
 -0.15238777822682889     
 -0.15227511874149205     
 -0.15215721080928749     
 -0.15203477531343509     
 -0.15191345184928134     
 -0.15177056481579415     
 -0.15161005644614692     
 -0.15142378687254718     
 -0.15119191676922950     
 -0.15089879859603181     
 -0.15051672158555593     
 -0.15000539968491239     
 -0.14931904813427899     
 -0.14835730469995248     
 -0.14739793367060708     
 -0.14420470909241315     
 -0.14347055079864007     
 -0.15219252107026854     
 -0.15183475387088538     
 -0.15069791635515964     
 -0.15085100521502751     
 -0.15075336872267486     
 -0.15066496645927277     
 -0.15056723235047648     
 -0.15046074349871147     
 -0.15032777796018013     
 -0.15017766328124954     
 -0.14998866785666762     
 -0.14975567206737914     
 -0.14945516719655921     
 -0.14906542392920746     
 -0.14855069878497559     
 -0.14786973935245804     
 -0.14696437570956936     
 -0.14574827391003253     
 -0.14433273129249460     
 -0.14100382340778958     
 -0.14091033161904543     
 -0.15136462716607796     
 -0.15059827511003132     
 -0.14909955089111357     
 -0.14918027910123313     
 -0.14886139375575794     
 -0.14858177828702335     
 -0.14828991209013531     
 -0.14797957939745257     
 -0.14763857204917122     
 -0.14725686281055614     
 -0.14681538078604026     
 -0.14629383945286495     
 -0.14566436186752260     
 -0.14489464028809354     
 -0.14393826525033190     
 -0.14274236545321700     
 -0.14123871533981058     
 -0.13934059845027763     
 -0.13711787129612796     
 -0.13300548487584912     
 -0.13233321809634574     
 -0.15060650891591945     
 -0.15025367106266613     
 -0.14853868533174733     
 -0.14844368248594950     
 -0.14793579110654051     
 -0.14745540705273535     
 -0.14694282090901578     
 -0.14638930865566330     
 -0.14578096068347954     
 -0.14509813307187461     
 -0.14432146329437401     
 -0.14342102548300420     
 -0.14236311182703487     
 -0.14110402205450093     
 -0.13959026976399352     
 -0.13775878618541851     
 -0.13553897499677528     
 -0.13286146226768208     
 -0.12979511005944733     
 -0.12506088879821642     
 -0.12469811776732107     
 -0.14962634817297574     
 -0.14945158551378016     
 -0.14740000200413772     
 -0.14703865860516982     
 -0.14628421252625490     
 -0.14553172098456649     
 -0.14472710847454265     
 -0.14385940469844530     
 -0.14291009282588038     
 -0.14185763324523365     
 -0.14067369621294726     
 -0.13932415194794481     
 -0.13776497829944137     
 -0.13594529135863495     
 -0.13380828700659772     
 -0.13130810737372756     
 -0.12841910930536024     
 -0.12508991093008640     
 -0.12132011198732624     
 -0.11601278834337270     
 -0.11569231356074611     
 -0.14838070087639790     
 -0.14831410801027153     
 -0.14591804279218934     
 -0.14521323980225065     
 -0.14413619491991927     
 -0.14303189660356191     
 -0.14185715507078819     
 -0.14059496356728976     
 -0.13922414417917309     
 -0.13771696126309560     
 -0.13603862683977472     
 -0.13414942742791738     
 -0.13201104128298061     
 -0.12959913444869545     
 -0.12688049902691084     
 -0.12379865009964089     
 -0.12029563715729080     
 -0.11630849988018113     
 -0.11179986899805232     
 -0.10583611607839923     
 -0.10547598415067601     
 -0.14673160199361462     
 -0.14669475162755832     
 -0.14392754562988141     
 -0.14278995369997968     
 -0.14130914275021195     
 -0.13977514792334036     
 -0.13814875232446386     
 -0.13640855593620951     
 -0.13452942359570766     
 -0.13248572914763176     
 -0.13026055568372089     
 -0.12783943101761328     
 -0.12518136374509831     
 -0.12223666649163431     
 -0.11895289129135760     
 -0.11526967952999105     
 -0.11111726273784331     
 -0.10638583095011978     
 -0.10083834616646785     
  -9.3923633028885886E-002
  -9.3479538296818612E-002
 -0.14450529148189786     
 -0.14445026108265849     
 -0.14126761979419764     
 -0.13960247728864247     
 -0.13762887178360275     
 -0.13557414398303647     
 -0.13340579293898383     
 -0.13111580867749351     
 -0.12870747848932360     
 -0.12616321698401980     
 -0.12344612577420980     
 -0.12051645284758211     
 -0.11732789505474864     
 -0.11382537588549634     
 -0.10994458547336806     
 -0.10556658805499951     
 -0.10047522778631308     
  -9.4776019096126193E-002
  -8.8497283534942600E-002
  -8.1178796328007674E-002
  -8.0700433120053733E-002
 -0.14148590726113283     
 -0.14140927426286978     
 -0.13773184653997275     
 -0.13543390277606998     
 -0.13286961137934783     
 -0.13023248510881835     
 -0.12752734138699992     
 -0.12473587201818984     
 -0.12183042808875358     
 -0.11878018776357753     
 -0.11554604073442898     
 -0.11208099931903265     
 -0.10832238847602157     
 -0.10413009312164664     
  -9.9375856565319262E-002
  -9.4179987808627630E-002
  -8.8517152917423333E-002
  -8.2379879843101314E-002
  -7.5234226583543257E-002
  -6.7042470710290070E-002
  -6.6490428062809248E-002
 -0.13740186565395485     
 -0.13732827259618668     
 -0.13305633791776117     
 -0.13006948092706297     
 -0.12693272767197827     
 -0.12375904170277963     
 -0.12052410950962501     
 -0.11720487068146658     
 -0.11376983986736963     
 -0.11018107854933291     
 -0.10636138811542836     
 -0.10215531246440081     
  -9.7599634983926167E-002
  -9.2744535678059944E-002
  -8.7565359116350466E-002
  -8.2032696326692078E-002
  -7.5666635422065115E-002
  -6.8713021308488262E-002
  -6.1172624877502184E-002
  -5.3094441369002314E-002
  -5.2642028858428530E-002
 -0.13197662924171727     
 -0.13192987651314350     
 -0.12711775284188384     
 -0.12348823589949558     
 -0.11976304407374454     
 -0.11601075249524799     
 -0.11220512327193276     
 -0.10830921239010290     
 -0.10421010538621427     
  -9.9826919100342471E-002
  -9.5292382521884753E-002
  -9.0585925403299433E-002
  -8.5714090264458295E-002
  -8.0550485738868083E-002
  -7.4741576297188514E-002
  -6.8566479418579934E-002
  -6.1964790465069100E-002
  -5.5059300554021341E-002
  -4.7325031794859737E-002
  -3.8699039111064815E-002
  -3.8202197164257677E-002
 -0.12523359747529247     
 -0.12514877366979629     
 -0.11981169417264108     
 -0.11548585019214548     
 -0.11111703460064673     
 -0.10670382805220949     
 -0.10209312406341027     
  -9.7384569429820600E-002
  -9.2653433011240779E-002
  -8.7902073595128652E-002
  -8.3121602330297945E-002
  -7.7973589942677057E-002
  -7.2552032646931205E-002
  -6.6933213020329632E-002
  -6.1057566651040375E-002
  -5.5045024182421583E-002
  -4.8445093525455313E-002
  -4.1246278148336125E-002
  -3.3504578156367780E-002
  -2.5131665265960831E-002
  -2.4791505846968060E-002
 -0.11695925053855796     
 -0.11675227760488227     
 -0.11084836588197662     
 -0.10570483713176758     
 -0.10037769393129492     
  -9.5116352931680415E-002
  -8.9960014237073144E-002
  -8.4941673141591595E-002
  -7.9882710190903136E-002
  -7.4597328533479584E-002
  -6.9320640854339061E-002
  -6.3982280266414712E-002
  -5.8625870422128308E-002
  -5.3310163076969709E-002
  -4.7430428411795358E-002
  -4.1264025402669338E-002
  -3.4746050515464887E-002
  -2.7944983878748192E-002
  -2.0404873773996690E-002
  -1.2300579948163012E-002
  -1.2126901621896422E-002
 -0.10669621687428132     
 -0.10638028223277307     
  -9.9523383950464214E-002
  -9.3413249518016439E-002
  -8.7562875703652315E-002
  -8.1981437460645207E-002
  -7.6266000247549662E-002
  -7.0698794726954256E-002
  -6.5276971713828652E-002
  -6.0016065782558185E-002
  -5.4988402689059392E-002
  -4.9841531207491088E-002
  -4.4524533237472234E-002
  -3.9072239289932975E-002
  -3.3518990452694693E-002
  -2.7858223236614178E-002
  -2.1685763755109302E-002
  -1.5160566521319528E-002
  -7.9756051669446718E-003
  -9.6187484313229948E-004
  -1.0807631712647136E-003
  -9.3607861049830807E-002
  -9.3213947227449023E-002
  -8.5956131099258731E-002