# vtk DataFile Version 2.0
3D Unstructured Grid of Linear Triangles
ASCII
DATASET UNSTRUCTURED_GRID
FIELD FieldData  1
TIME 1 1 double
        3600.00000
POINTS     7056 float
          0.0000E+00      1.0000E+01      1.0000E+00
          5.0000E-01      1.0000E+01      9.9333E-01
          1.0000E+00      1.0000E+01      9.8333E-01
          1.5000E+00      1.0000E+01      9.7333E-01
          2.0000E+00      1.0000E+01      9.6333E-01
          2.5000E+00      1.0000E+01      9.5333E-01
          3.0000E+00      1.0000E+01      9.4333E-01
          3.5000E+00      1.0000E+01      9.3333E-01
          4.0000E+00      1.0000E+01      9.2333E-01
          4.5000E+00      1.0000E+01      9.1333E-01
          5.0000E+00      1.0000E+01      9.0333E-01
          5.5000E+00      1.0000E+01      8.9333E-01
          6.0000E+00      1.0000E+01      8.8333E-01
          6.5000E+00      1.0000E+01      8.7333E-01
          7.0000E+00      1.0000E+01      8.6333E-01
          7.5000E+00      1.0000E+01      8.5333E-01
          8.0000E+00      1.0000E+01      8.4333E-01
          8.5000E+00      1.0000E+01      8.3333E-01
          9.0000E+00      1.0000E+01      8.2333E-01
          9.5000E+00      1.0000E+01      8.1333E-01
          1.0000E+01      1.0000E+01      8.1000E-01
          0.0000E+00      9.5000E+00      9.8333E-01
          5.0000E-01      9.5000E+00      9.8250E-01
          1.0000E+00      9.5000E+00      9.7250E-01
          1.5000E+00      9.5000E+00      9.6250E-01
          2.0000E+00      9.5000E+00      9.5250E-01
          2.5000E+00      9.5000E+00      9.4250E-01
          3.0000E+00      9.5000E+00      9.3250E-01
          3.5000E+00      9.5000E+00      9.2250E-01
          4.0000E+00      9.5000E+00      9.1250E-01
          4.5000E+00      9.5000E+00      9.0250E-01
          5.0000E+00      9.5000E+00      8.9250E-01
          5.5000E+00      9.5000E+00      8.8250E-01
          6.0000E+00      9.5000E+00      8.7250E-01
          6.5000E+00      9.5000E+00      8.6250E-01
          7.0000E+00      9.5000E+00      8.5250E-01
          7.5000E+00      9.5000E+00      8.4250E-01
          8.0000E+00      9.5000E+00      8.3250E-01
          8.5000E+00      9.5000E+00      8.2250E-01
          9.0000E+00      9.5000E+00      8.1250E-01
          9.5000E+00      9.5000E+00      8.0250E-01
          1.0000E+01      9.5000E+00      8.0167E-01
          0.0000E+00      9.0000E+00      9.5833E-01
          5.0000E-01      9.0000E+00      9.5750E-01
          1.0000E+00      9.0000E+00      9.4750E-01
          1.5000E+00      9.0000E+00      9.3750E-01
          2.0000E+00      9.0000E+00      9.2750E-01
          2.5000E+00      9.0000E+00      9.1750E-01
          3.0000E+00      9.0000E+00      9.0750E-01
          3.5000E+00      9.0000E+00      8.9750E-01
          4.0000E+00      9.0000E+00      8.8750E-01
          4.5000E+00      9.0000E+00      8.7750E-01
          5.0000E+00      9.0000E+00      8.6750E-01
          5.5000E+00      9.0000E+00      8.5750E-01
          6.0000E+00      9.0000E+00      8.4750E-01
          6.5000E+00      9.0000E+00      8.3750E-01
          7.0000E+00      9.0000E+00      8.2750E-01
          7.5000E+00      9.0000E+00      8.1750E-01
          8.0000E+00      9.0000E+00      8.0750E-01
          8.5000E+00      9.0000E+00      7.9750E-01
          9.0000E+00      9.0000E+00      7.8750E-01
          9.5000E+00      9.0000E+00      7.7750E-01
          1.0000E+01      9.0000E+00      7.7667E-01
          0.0000E+00      8.5000E+00      9.3333E-01
          5.0000E-01      8.5000E+00      9.3250E-01
          1.0000E+00      8.5000E+00      9.2250E-01
          1.5000E+00      8.5000E+00      9.1250E-01
          2.0000E+00      8.5000E+00      9.0250E-01
          2.5000E+00      8.5000E+00      8.9250E-01
          3.0000E+00      8.5000E+00      8.8250E-01
          3.5000E+00      8.5000E+00      8.7250E-01
          4.0000E+00      8.5000E+00      8.6250E-01
          4.5000E+00      8.5000E+00      8.5250E-01
          5.0000E+00      8.5000E+00      8.4250E-01
          5.5000E+00      8.5000E+00      8.3250E-01
          6.0000E+00      8.5000E+00      8.2250E-01
          6.5000E+00      8.5000E+00      8.1250E-01
          7.0000E+00      8.5000E+00      8.0250E-01
          7.5000E+00      8.5000E+00      7.9250E-01
          8.0000E+00      8.5000E+00      7.8250E-01
          8.5000E+00      8.5000E+00      7.7250E-01
          9.0000E+00      8.5000E+00      7.6250E-01
          9.5000E+00      8.5000E+00      7.5250E-01
          1.0000E+01      8.5000E+00      7.5167E-01
          0.0000E+00      8.0000E+00      9.0833E-01
          5.0000E-01      8.0000E+00      9.0750E-01
          1.0000E+00      8.0000E+00      8.9750E-01
          1.5000E+00      8.0000E+00      8.8750E-01
          2.0000E+00      8.0000E+00      8.7750E-01
          2.5000E+00      8.0000E+00      8.6750E-01
          3.0000E+00      8.0000E+00      8.5750E-01
          3.5000E+00      8.0000E+00      8.4750E-01
          4.0000E+00      8.0000E+00      8.3750E-01
          4.5000E+00      8.0000E+00      8.2750E-01
          5.0000E+00      8.0000E+00      8.1750E-01
          5.5000E+00      8.0000E+00      8.0750E-01
          6.0000E+00      8.0000E+00      7.9750E-01
          6.5000E+00      8.0000E+00      7.8750E-01
          7.0000E+00      8.0000E+00      7.7750E-01
          7.5000E+00      8.0000E+00      7.6750E-01
          8.0000E+00      8.0000E+00      7.5750E-01
          8.5000E+00      8.0000E+00      7.4750E-01
          9.0000E+00      8.0000E+00      7.3750E-01
          9.5000E+00      8.0000E+00      7.2750E-01
          1.0000E+01      8.0000E+00      7.2667E-01
          0.0000E+00      7.5000E+00      8.8333E-01
          5.0000E-01      7.5000E+00      8.8250E-01
          1.0000E+00      7.5000E+00      8.7250E-01
          1.5000E+00      7.5000E+00      8.6250E-01
          2.0000E+00      7.5000E+00      8.5250E-01
          2.5000E+00      7.5000E+00      8.4250E-01
          3.0000E+00      7.5000E+00      8.3250E-01
          3.5000E+00      7.5000E+00      8.2250E-01
          4.0000E+00      7.5000E+00      8.1250E-01
          4.5000E+00      7.5000E+00      8.0250E-01
          5.0000E+00      7.5000E+00      7.9250E-01
          5.5000E+00      7.5000E+00      7.8250E-01
          6.0000E+00      7.5000E+00      7.7250E-01
          6.5000E+00      7.5000E+00      7.6250E-01
          7.0000E+00      7.5000E+00      7.5250E-01
          7.5000E+00      7.5000E+00      7.4250E-01
          8.0000E+00      7.5000E+00      7.3250E-01
          8.5000E+00      7.5000E+00      7.2250E-01
          9.0000E+00      7.5000E+00      7.1250E-01
          9.5000E+00      7.5000E+00      7.0250E-01
          1.0000E+01      7.5000E+00      7.0167E-01
          0.0000E+00      7.0000E+00      8.5833E-01
          5.0000E-01      7.0000E+00      8.5750E-01
          1.0000E+00      7.0000E+00      8.4750E-01
          1.5000E+00      7.0000E+00      8.3750E-01
          2.0000E+00      7.0000E+00      8.2750E-01
          2.5000E+00      7.0000E+00      8.1750E-01
          3.0000E+00      7.0000E+00      8.0750E-01
          3.5000E+00      7.0000E+00      7.9750E-01
          4.0000E+00      7.0000E+00      7.8750E-01
          4.5000E+00      7.0000E+00      7.7750E-01
          5.0000E+00      7.0000E+00      7.6750E-01
          5.5000E+00      7.0000E+00      7.5750E-01
          6.0000E+00      7.0000E+00      7.4750E-01
          6.5000E+00      7.0000E+00      7.3750E-01
          7.0000E+00      7.0000E+00      7.2750E-01
          7.5000E+00      7.0000E+00      7.1750E-01
          8.0000E+00      7.0000E+00      7.0750E-01
          8.5000E+00      7.0000E+00      6.9750E-01
          9.0000E+00      7.0000E+00      6.8750E-01
          9.5000E+00      7.0000E+00      6.7750E-01
          1.0000E+01      7.0000E+00      6.7667E-01
          0.0000E+00      6.5000E+00      8.3333E-01
          5.0000E-01      6.5000E+00      8.3250E-01
          1.0000E+00      6.5000E+00      8.2250E-01
          1.5000E+00      6.5000E+00      8.1250E-01
          2.0000E+00      6.5000E+00      8.0250E-01
          2.5000E+00      6.5000E+00      7.9250E-01
          3.0000E+00      6.5000E+00      7.8250E-01
          3.5000E+00      6.5000E+00      7.7250E-01
          4.0000E+00      6.5000E+00      7.6250E-01
          4.5000E+00      6.5000E+00      7.5250E-01
          5.0000E+00      6.5000E+00      7.4250E-01
          5.5000E+00      6.5000E+00      7.3250E-01
          6.0000E+00      6.5000E+00      7.2250E-01
          6.5000E+00      6.5000E+00      7.1250E-01
          7.0000E+00      6.5000E+00      7.0250E-01
          7.5000E+00      6.5000E+00      6.9250E-01
          8.0000E+00      6.5000E+00      6.8250E-01
          8.5000E+00      6.5000E+00      6.7250E-01
          9.0000E+00      6.5000E+00      6.6250E-01
          9.5000E+00      6.5000E+00      6.5250E-01
          1.0000E+01      6.5000E+00      6.5167E-01
          0.0000E+00      6.0000E+00      8.0833E-01
          5.0000E-01      6.0000E+00      8.0750E-01
          1.0000E+00      6.0000E+00      7.9750E-01
          1.5000E+00      6.0000E+00      7.8750E-01
          2.0000E+00      6.0000E+00      7.7750E-01
          2.5000E+00      6.0000E+00      7.6750E-01
          3.0000E+00      6.0000E+00      7.5750E-01
          3.5000E+00      6.0000E+00      7.4750E-01
          4.0000E+00      6.0000E+00      7.3750E-01
          4.5000E+00      6.0000E+00      7.2750E-01
          5.0000E+00      6.0000E+00      7.1750E-01
          5.5000E+00      6.0000E+00      7.0750E-01
          6.0000E+00      6.0000E+00      6.9750E-01
          6.5000E+00      6.0000E+00      6.8750E-01
          7.0000E+00      6.0000E+00      6.7750E-01
          7.5000E+00      6.0000E+00      6.6750E-01
          8.0000E+00      6.0000E+00      6.5750E-01
[...]
POINT_DATA     7056
SCALARS saturation float
LOOKUP_TABLE default
       0.6557462
       0.6571756
       0.6577360
       0.6581242
       0.6585135
       0.6588885
       0.6592322
       0.6595752
       0.6599162
       0.6602617
       0.6606214
       0.6610174
       0.6614614
       0.6619773
       0.6626062
       0.6634029
       0.6644598
       0.6659281
       0.6677726
       0.6726519
       0.6738245
       0.6582610
       0.6589500
       0.6605368
       0.6607314
       0.6611152
       0.6614749
       0.6618254
       0.6621713
       0.6625294
       0.6628969
       0.6632992
       0.6637486
       0.6642731
       0.6649101
       0.6657123
       0.6667561
       0.6681630
       0.6701250
       0.6727889
       0.6785564
       0.6785012
       0.6605505
       0.6615276
       0.6639125
       0.6644303
       0.6652305
       0.6659613
       0.6666633
       0.6673524
       0.6680477
       0.6687719
       0.6695520
       0.6704244
       0.6714361
       0.6726566
       0.6741814
       0.6761538
       0.6787785
       0.6823405
       0.6870175
       0.6950325
       0.6958943
       0.6628076
       0.6631265
       0.6660689
       0.6669976
       0.6681917
       0.6693215
       0.6704373
       0.6715597
       0.6727163
       0.6739427
       0.6752845
       0.6768033
       0.6785823
       0.6807334
       0.6833969
       0.6867219
       0.6908971
       0.6962608
       0.7032769
       0.7147173
       0.7156225
       0.6653663
       0.6653082
       0.6688962
       0.6703482
       0.6720530
       0.6737232
       0.6754030
       0.6771266
       0.6789354
       0.6808835
       0.6830325
       0.6854564
       0.6882257
       0.6914534
       0.6953250
       0.7001015
       0.7062211
       0.7145034
       0.7251929
       0.7400270
       0.7409026
       0.6682322
       0.6679394
       0.6722066
       0.6743434
       0.6767327
       0.6791361
       0.6816020
       0.6841648
       0.6868518
       0.6896864
       0.6927374
       0.6961207
       0.6999927
       0.7045901
       0.7103215
       0.7176235
       0.7265002
       0.7373822
       0.7507892
       0.7693487
       0.7704198
       0.6715616
       0.6711712
       0.6762335
       0.6792681
       0.6825812
       0.6859530
       0.6893711
       0.6928443
       0.6964479
       0.7002864
       0.7045119
       0.7093687
       0.7151633
       0.7218709
       0.7296249
       0.7387771
       0.7496733
       0.7629422
       0.7819225
       0.8070843
       0.8084699
       0.6756058
       0.6752140
       0.6812815
       0.6854750
       0.6898614
       0.6942384
       0.6986855
       0.7033133
       0.7082895
       0.7138470
       0.7199501
       0.7265317
       0.7337831
       0.7419448
       0.7512620
       0.7622321
       0.7772418
       0.7958950
       0.8191249
       0.8485330
       0.8497421
       0.6807451
       0.6804179
       0.6876783
       0.6930756
       0.6986332
       0.7043453
       0.7104257
       0.7170145
       0.7238068
       0.7308026
       0.7381420
       0.7460005
       0.7545447
       0.7644265
       0.7772906
       0.7924476
       0.8105546
       0.8320092
       0.8601023
       0.8969330
       0.8984104
       0.6872877
       0.6870864
       0.6955261
       0.7024329
       0.7098191
       0.7177623
       0.7257580
       0.7337358
       0.7417827
       0.7500115
       0.7585724
       0.7686273
       0.7804318
       0.7936096
       0.8086503
       0.8259183
       0.8463163
       0.8731146
       0.9060943
       0.9451304
       0.9457717
       0.6954001
       0.6954173
       0.7055393
       0.7149785
       0.7246858
       0.7342422
       0.7436486
       0.7529411
       0.7623942
       0.7734548
       0.7852244
       0.7977189
       0.8112556
       0.8259831
       0.8423432
       0.8631486
       0.8879895
       0.9173477
       0.9529230
       0.9857491
       0.9851726
       0.7061583
       0.7064156
       0.7193607
       0.7310451
       0.7424877
       0.7535929
       0.7648000
       0.7774421
       0.7901962
       0.8031885
       0.8165503
       0.8302069
       0.8450497
       0.8625507
       0.8823035
       0.9048813
       0.9308165
       0.9630959
       1.0000000
       1.0000000
       1.0000000
       0.7214182
       0.7218010
       0.7368013
       0.7505213
       0.7639596
       0.7789287
       0.7937901
       0.8084812
       0.8228141
       0.8366059
       0.8520594
       0.8684184
       0.8857751
       0.9043424
       0.9239418
       0.9463682
       0.9721001
       1.0000000
       1.0000000
       1.0000000
       1.0000000
       0.7404817
       0.7411232
       0.7582761
       0.7760434
       0.7940550
       0.8116729
       0.8283456
       0.8444562
       0.8613699
       0.8782182
       0.8952844
       0.9122143
       0.9289048
       0.9468754
       0.9661333
       0.9827888
       1.0000000
       1.0000000
       1.0000000
       1.0000000
       1.0000000
       0.7649721
       0.7657203
       0.7885722
       0.8105383
       0.8311129
       0.8510296
       0.8710272
       0.8904964
       0.9082918
       0.9246284
       0.9413310
       0.9584694
       0.9720023
       0.9848337
       1.0000000
       1.0000000
       1.0000000
       1.0000000
       1.0000000
       1.0000000
       1.0000000
       0.8006369
       0.8015022
       0.8283560
       0.8539158
       0.8789262
       0.9017230
       0.9221814
       0.9430803
       0.9589855
       0.9730013
       0.9846644
       1.0000000
       1.0000000
       1.0000000
       1.0000000
       1.0000000
       1.0000000
       1.0000000
       1.0000000
       1.0000000
       1.0000000
       0.8476005
       0.8480322
       0.8808969
       0.9111097
       0.9379558
       0.9582055
       0.9757684
       0.9996974
       1.0000000
       1.0000000
       1.0000000
       1.0000000
       1.0000000
       1.0000000
       1.0000000
       1.0000000
       1.0000000
       1.0000000
       1.0000000
       1.0000000
       1.0000000
       0.9151036
       0.9144331
       0.9471197
       0.9782637
       1.0000000
       1.0000000
       1.0000000
       1.0000000
       1.0000000
       1.0000000
       1.0000000
       1.0000000
       1.0000000
       1.0000000
       1.0000000
       1.0000000
       1.0000000
       1.0000000
       1.0000000
       1.0000000
       1.0000000
       1.0000000
       1.0000000
       1.0000000
       1.0000000
       1.0000000
       1.0000000
       1.0000000
       1.0000000
       1.0000000
       1.0000000
       1.0000000
       1.0000000
       1.0000000
       1.0000000
       1.0000000
       1.0000000
       1.0000000
       1.0000000
       1.0000000
       1.0000000
       1.0000000
       1.0000000
       1.0000000
       1.0000000
       1.0000000
       1.0000000
       1.0000000
       1.0000000
       1.0000000
       1.0000000
       1.0000000
       1.0000000
       1.0000000
       1.0000000
       1.0000000
       1.0000000
       1.0000000
       1.0000000
       1.0000000
       1.0000000
       1.0000000
       1.0000000
       1.0000000
       1.0000000
       1.0000000
       1.0000000
       1.0000000
       1.0000000
       1.0000000
       1.0000000
       1.0000000
       1.0000000
       1.0000000
       1.0000000
       1.0000000
       1.0000000
       1.0000000
       1.0000000
       1.0000000
       1.0000000
       1.0000000
       1.0000000
       1.0000000
       0.6637089
       0.6651262
       0.6657223
       0.6661347
       0.6665492
       0.6669490
       0.6673160
       0.6676828
       0.6680478
       0.6684183
       0.6688045
       0.6692302
       0.6697080
       0.6702630
       0.6709395
       0.6717960
       0.6729315
       0.6745074
       0.6764896
       0.6817113
       0.6827648
       0.6662690
       0.6668086
       0.6685003
       0.6687083
       0.6691187
       0.6695038
       0.6698796
       0.6702512
       0.6706361
       0.6710318
       0.6714651
       0.6719491
       0.6725136
       0.6731990
       0.6740617
       0.6751840
       0.6766955
       0.6788012
       0.6816608
       0.6878323
       0.6875747
       0.6687022
       0.6695489
       0.6720906
       0.6726457
       0.6735024
       0.6742863
       0.6750398
       0.6757798
       0.6765266
       0.6773045
       0.6781428
       0.6790804
       0.6801677
       0.6814791
       0.6831170
       0.6852352
       0.6880544
       0.6918877
       0.6969416
       0.7055821
       0.7062999
       0.6711126
       0.6712595
       0.6743988
       0.6753950
       0.6766735
       0.6778837
       0.6790794
       0.6802828
       0.6815235
       0.6828397
       0.6842802
       0.6859111
       0.6878222
       0.6901353
       0.6930055
       0.6966001
       0.7011178
       0.7069229
       0.7145166
       0.7268715
       0.7276386
       0.6738534
       0.6735956
       0.6774269
       0.6789817
       0.6808059
       0.6825945
       0.6843947
       0.6862429
       0.6881839
       0.6902766
       0.6925891
       0.6952049
       0.6982020
       0.7016973
       0.7058912
       0.7110657
       0.7176878
       0.7266653
       0.7383396
       0.7545556
       0.7553329
       0.6769257
       0.6764135
       0.6809726
       0.6832601
       0.6858180
       0.6883937
       0.6910398
       0.6937959
       0.6966955
       0.6997627
       0.7030667
       0.7067324
       0.7109284
       0.7159072
       0.7221087
       0.7300581
       0.7397620
       0.7516890
       0.7664387
       0.7867782
       0.7877763
       0.6804953
       0.6798768
       0.6852886
       0.6885393
       0.6920928
       0.6957213
       0.6994138
       0.7031715
       0.7070732
       0.7112309
       0.7158064
       0.7210619
       0.7273553
       0.7346864
       0.7431751
       0.7532176
       0.7652068
       0.7797992
       0.8007396
       0.8285655
       0.8299762
       0.6848331
       0.6842123
       0.6907064
       0.6952150
       0.6999497
       0.7046820
       0.7094939
       0.7145025
       0.7198855
       0.7259078
       0.7325722
       0.7397763
       0.7477269
       0.7566946
       0.7669545
       0.7790226
       0.7955648
       0.8162177
       0.8419752
       0.8744234
       0.8756625
       0.6903539
       0.6898028
       0.6976076
       0.7034387
       0.7094472
       0.7156249
       0.7221984
       0.7293612
       0.7367865
       0.7444511
       0.7525086
       0.7611533
       0.7705684
       0.7814173
       0.7956167
       0.8123979
       0.8324731
       0.8562633
       0.8871860
       0.9269321
       0.9284509
       0.6974159
       0.6970088
       0.7061083
       0.7135756
       0.7215567
       0.7301901
       0.7389288
       0.7476715
       0.7565102
       0.7655703
       0.7750019
       0.7860375
       0.7990905
       0.8136853
       0.8303632
       0.8495154
       0.8720410
       0.9013923
       0.9365966
       0.9751450
       0.9757106
       0.7061936
       0.7060342
       0.7169581
       0.7271825
       0.7377762
       0.7482415
       0.7585716
       0.7688038
       0.7791971
       0.7913734
       0.8043979
       0.8182428
       0.8332556
       0.8495873
       0.8676590
       0.8905284
       0.9174493
       0.9482321
       0.9820549
       1.0000000
       1.0000000
       0.7178401
       0.7179467
       0.7319967
       0.7447656
       0.7573165
       0.7695380
       0.7818369
       0.7957917
       0.8099089
       0.8243092
       0.8391306
       0.8542703
       0.8706458
       0.8898729
       0.9113361
       0.9353386
       0.9616591
       0.9902758
       1.0000000
       1.0000000
       1.0000000
       0.7344563
       0.7347213
       0.7511103
       0.7661835
       0.7809426
       0.7974587
       0.8139056
       0.8301885
       0.8460819
       0.8613556
       0.8783688
       0.8962841
       0.9150702
       0.9347723
       0.9548523
       0.9762913
       0.9964042
       1.0000000
       1.0000000
       1.0000000
       1.0000000
       0.7553278
       0.7559117
       0.7747566
       0.7943077
       0.8142263
       0.8337463
       0.8522245
       0.8700052
       0.8885903
       0.9069284
       0.9252263
       0.9429501
       0.9597710
       0.9767479
       0.9924981
       1.0000000
       1.0000000
       1.0000000
       1.0000000
       1.0000000
       1.0000000
       0.7822451
       0.7829718
       0.8081970
       0.8325183
       0.8553095
       0.8772594
       0.8991414
       0.9201398
       0.9388985
       0.9555418
       0.9716834
       0.9866700
       0.9963472
       1.0000000
       1.0000000
       1.0000000
       1.0000000
       1.0000000
       1.0000000
       1.0000000
       1.0000000
       0.8216715
       0.8225650
       0.8522881
       0.8804564
       0.9077241
       0.9320445
       0.9531162
       0.9733161
       0.9870858
       0.9968957
       1.0000000
       1.0000000
       1.0000000
       1.0000000
       1.0000000
       1.0000000
       1.0000000
       1.0000000
       1.0000000
       1.0000000
       1.0000000
       0.8735987
       0.8740359
       0.9098800
       0.9418580
       0.9685371
       0.9864592
       0.9983825
       1.0000000
       1.0000000
       1.0000000
       1.0000000
       1.0000000
       1.0000000
       1.0000000
       1.0000000
       1.0000000
       1.0000000
       1.0000000
       1.0000000
       1.0000000
       1.0000000
       0.9460062
       0.9453011
       0.9769848
       0.9993446
       1.0000000
       1.0000000
       1.0000000
       1.0000000
       1.0000000
       1.0000000
       1.0000000
       1.0000000
       1.0000000
       1.0000000
       1.0000000
       1.0000000
       1.0000000
       1.0000000
       1.0000000
       1.0000000
       1.0000000
       1.0000000
       1.0000000
       1.0000000
       1.0000000
       1.0000000
       1.0000000
       1.0000000
       1.0000000
       1.0000000
       1.0000000
       1.0000000
       1.0000000
       1.0000000
       1.0000000
       1.0000000
       1.0000000
       1.0000000
       1.0000000
       1.0000000
       1.0000000
       1.0000000
       1.0000000
       1.0000000
       1.0000000
       1.0000000
       1.0000000
       1.0000000
       1.0000000
       1.0000000
       1.0000000
       1.0000000
       1.0000000
       1.0000000
       1.0000000
       1.0000000
       1.0000000
       1.0000000
       1.0000000
       1.0000000
       1.0000000
       1.0000000
       1.0000000
       1.0000000
       1.0000000
       1.0000000
       1.0000000
       1.0000000
       1.0000000
       1.0000000
       1.0000000
       1.0000000
       1.0000000
       1.0000000
       1.0000000
       1.0000000
       1.0000000
       1.0000000
       1.0000000
       1.0000000
       1.0000000
       1.0000000
       1.0000000
       1.0000000
       0.6781228
       0.6793688
       0.6800380
       0.6804929
       0.6809581
       0.6814120
       0.6818341
       0.6822602
       0.6826888
       0.6831289
       0.6835931
       0.6841088
       0.6846914
       0.6853692
       0.6861910
       0.6872251
       0.6885860
       0.6904567
       0.6928207
       0.6987869
       0.6993365
       0.6806092
       0.6806498
       0.6825677
       0.6828096
       0.6832835
       0.6837332
       0.6841764
       0.6846186
       0.6850796
       0.6855575
       0.6860821
       0.6866681
       0.6873488
       0.6881717
       0.6892039
       0.6905413
       0.6923306
       0.6948012
       0.6981467
       0.7051685
       0.7042601
       0.6833215
       0.6837380
       0.6866078
       0.6872613
       0.6882553
       0.6891750
       0.6900636
       0.6909381
       0.6918208
       0.6927407
       0.6937323
       0.6948411
       0.6961251
       0.6976692
       0.6995897
       0.7020626
       0.7053470
       0.7098448
       0.7159058
       0.7260330
       0.7261871
       0.6860820
       0.6857264
       0.6892878
       0.6904634
       0.6919438
       0.6933483
       0.6947367
       0.6961365
       0.6975824
       0.6991180
       0.7007987
       0.7027011
       0.7049304
       0.7076359
       0.7110270
       0.7153485
       0.7207903
       0.7277518
       0.7367941
       0.7510988
       0.7513724
       0.6892891
       0.6884492
       0.6928040
       0.6946075
       0.6967009
       0.6987610
       0.7008381
       0.7029740
       0.7052220
       0.7076549
       0.7103651
       0.7134763
       0.7170985
       0.7213272
       0.7263879
       0.7326015
       0.7404484
       0.7510731
       0.7654109
       0.7851501
       0.7856284
       0.6928914
       0.6917273
       0.6969070
       0.6995391
       0.7024661
       0.7054241
       0.7084784
       0.7116927
       0.7151356
       0.7188355
       0.7228271
       0.7272524
       0.7323023
       0.7382381
       0.7455389
       0.7551639
       0.7671262
       0.7818925
       0.8003147
       0.8247743
       0.8255567
       0.6970542
       0.6957532
       0.7018951
       0.7056238
       0.7097087
       0.7139489
       0.7183582
       0.7228735
       0.7275635
       0.7325521
       0.7380049
       0.7442026
       0.7517216
       0.7607852
       0.7712993
       0.7837860
       0.7987752
       0.8167729
       0.8426299
       0.8768676
       0.8784039
       0.7020941
       0.7007924
       0.7081710
       0.7134210
       0.7190457
       0.7247014
       0.7304508
       0.7364114
       0.7427587
       0.7498716
       0.7580740
       0.7670168
       0.7769052
       0.7881040
       0.8009594
       0.8158658
       0.8362195
       0.8619442
       0.8937465
       0.9320553
       0.9333818
       0.7085299
       0.7073167
       0.7163696
       0.7233250
       0.7304709
       0.7377844
       0.7454882
       0.7540874
       0.7632630
       0.7727878
       0.7828406
       0.7936623
       0.8054644
       0.8186835
       0.8362838
       0.8572112
       0.8821025
       0.9111572
       0.9467648
       0.9858112
       0.9870339
       0.7169975
       0.7159816
       0.7266542
       0.7355066
       0.7448437
       0.7551998
       0.7659663
       0.7768176
       0.7878406
       0.7991947
       0.8109648
       0.8243084
       0.8406184
       0.8588224
       0.8795229
       0.9030194
       0.9296418
       0.9620253
       0.9931274
       1.0000000
       1.0000000
       0.7275946
       0.7269162
       0.7396661
       0.7517298
       0.7646918
       0.7776284
       0.7904792
       0.8032806
       0.8160739
       0.8309844
       0.8472618
       0.8645158
       0.8831180
       0.9031166
       0.9245465
       0.9504878
       0.9777447
       0.9992878
       1.0000000
       1.0000000
       1.0000000
       0.7414760
       0.7411574
       0.7578692
       0.7735271
       0.7890632
       0.8043049
       0.8192577
       0.8365592
       0.8541620
       0.8720601
       0.8903639
       0.9088016
       0.9280430
       0.9497710
       0.9719873
       0.9922889
       1.0000000
       1.0000000
       1.0000000
       1.0000000
       1.0000000
       0.7617304
       0.7616740
       0.7816228
       0.8003139
       0.8183637
       0.8387849
       0.8592230
       0.8793875
       0.8988944
       0.9173000
       0.9369488
       0.9566961
       0.9755360
       0.9918901
       1.0000000
       1.0000000
       1.0000000
       1.0000000
       1.0000000
       1.0000000
       1.0000000
       0.7875513
       0.7880043
       0.8112004
       0.8351133
       0.8597872
       0.8838766
       0.9064094
       0.9273599
       0.9484052
       0.9676715
       0.9845453
       0.9969545
       1.0000000
       1.0000000
       1.0000000
       1.0000000
       1.0000000