# vtk DataFile Version 2.0
3D Unstructured Grid of Linear Triangles
ASCII
DATASET UNSTRUCTURED_GRID
FIELD FieldData  1
TIME 1 1 double
        1802.51165
POINTS     7056 float
          0.0000E+00      1.0000E+01      1.0000E+00
          5.0000E-01      1.0000E+01      9.9333E-01
          1.0000E+00      1.0000E+01      9.8333E-01
          1.5000E+00      1.0000E+01      9.7333E-01
          2.0000E+00      1.0000E+01      9.6333E-01
          2.5000E+00      1.0000E+01      9.5333E-01
          3.0000E+00      1.0000E+01      9.4333E-01
          3.5000E+00      1.0000E+01      9.3333E-01
          4.0000E+00      1.0000E+01      9.2333E-01
          4.5000E+00      1.0000E+01      9.1333E-01
          5.0000E+00      1.0000E+01      9.0333E-01
          5.5000E+00      1.0000E+01      8.9333E-01
          6.0000E+00      1.0000E+01      8.8333E-01
          6.5000E+00      1.0000E+01      8.7333E-01
          7.0000E+00      1.0000E+01      8.6333E-01
          7.5000E+00      1.0000E+01      8.5333E-01
          8.0000E+00      1.0000E+01      8.4333E-01
          8.5000E+00      1.0000E+01      8.3333E-01
          9.0000E+00      1.0000E+01      8.2333E-01
          9.5000E+00      1.0000E+01      8.1333E-01
          1.0000E+01      1.0000E+01      8.1000E-01
          0.0000E+00      9.5000E+00      9.8333E-01
          5.0000E-01      9.5000E+00      9.8250E-01
          1.0000E+00      9.5000E+00      9.7250E-01
          1.5000E+00      9.5000E+00      9.6250E-01
          2.0000E+00      9.5000E+00      9.5250E-01
          2.5000E+00      9.5000E+00      9.4250E-01
          3.0000E+00      9.5000E+00      9.3250E-01
          3.5000E+00      9.5000E+00      9.2250E-01
          4.0000E+00      9.5000E+00      9.1250E-01
          4.5000E+00      9.5000E+00      9.0250E-01
          5.0000E+00      9.5000E+00      8.9250E-01
          5.5000E+00      9.5000E+00      8.8250E-01
          6.0000E+00      9.5000E+00      8.7250E-01
          6.5000E+00      9.5000E+00      8.6250E-01
          7.0000E+00      9.5000E+00      8.5250E-01
          7.5000E+00      9.5000E+00      8.4250E-01
          8.0000E+00      9.5000E+00      8.3250E-01
          8.5000E+00      9.5000E+00      8.2250E-01
          9.0000E+00      9.5000E+00      8.1250E-01
          9.5000E+00      9.5000E+00      8.0250E-01
          1.0000E+01      9.5000E+00      8.0167E-01
          0.0000E+00      9.0000E+00      9.5833E-01
          5.0000E-01      9.0000E+00      9.5750E-01
          1.0000E+00      9.0000E+00      9.4750E-01
          1.5000E+00      9.0000E+00      9.3750E-01
          2.0000E+00      9.0000E+00      9.2750E-01
          2.5000E+00      9.0000E+00      9.1750E-01
          3.0000E+00      9.0000E+00      9.0750E-01
          3.5000E+00      9.0000E+00      8.9750E-01
          4.0000E+00      9.0000E+00      8.8750E-01
          4.5000E+00      9.0000E+00      8.7750E-01
          5.0000E+00      9.0000E+00      8.6750E-01
          5.5000E+00      9.0000E+00      8.5750E-01
          6.0000E+00      9.0000E+00      8.4750E-01
          6.5000E+00      9.0000E+00      8.3750E-01
          7.0000E+00      9.0000E+00      8.2750E-01
          7.5000E+00      9.0000E+00      8.1750E-01
          8.0000E+00      9.0000E+00      8.0750E-01
          8.5000E+00      9.0000E+00      7.9750E-01
          9.0000E+00      9.0000E+00      7.8750E-01
          9.5000E+00      9.0000E+00      7.7750E-01
          1.0000E+01      9.0000E+00      7.7667E-01
          0.0000E+00      8.5000E+00      9.3333E-01
          5.0000E-01      8.5000E+00      9.3250E-01
          1.0000E+00      8.5000E+00      9.2250E-01
          1.5000E+00      8.5000E+00      9.1250E-01
          2.0000E+00      8.5000E+00      9.0250E-01
          2.5000E+00      8.5000E+00      8.9250E-01
          3.0000E+00      8.5000E+00      8.8250E-01
          3.5000E+00      8.5000E+00      8.7250E-01
          4.0000E+00      8.5000E+00      8.6250E-01
          4.5000E+00      8.5000E+00      8.5250E-01
          5.0000E+00      8.5000E+00      8.4250E-01
          5.5000E+00      8.5000E+00      8.3250E-01
          6.0000E+00      8.5000E+00      8.2250E-01
          6.5000E+00      8.5000E+00      8.1250E-01
          7.0000E+00      8.5000E+00      8.0250E-01
          7.5000E+00      8.5000E+00      7.9250E-01
          8.0000E+00      8.5000E+00      7.8250E-01
          8.5000E+00      8.5000E+00      7.7250E-01
          9.0000E+00      8.5000E+00      7.6250E-01
          9.5000E+00      8.5000E+00      7.5250E-01
          1.0000E+01      8.5000E+00      7.5167E-01
          0.0000E+00      8.0000E+00      9.0833E-01
          5.0000E-01      8.0000E+00      9.0750E-01
          1.0000E+00      8.0000E+00      8.9750E-01
          1.5000E+00      8.0000E+00      8.8750E-01
          2.0000E+00      8.0000E+00      8.7750E-01
          2.5000E+00      8.0000E+00      8.6750E-01
          3.0000E+00      8.0000E+00      8.5750E-01
          3.5000E+00      8.0000E+00      8.4750E-01
          4.0000E+00      8.0000E+00      8.3750E-01
          4.5000E+00      8.0000E+00      8.2750E-01
          5.0000E+00      8.0000E+00      8.1750E-01
          5.5000E+00      8.0000E+00      8.0750E-01
          6.0000E+00      8.0000E+00      7.9750E-01
          6.5000E+00      8.0000E+00      7.8750E-01
          7.0000E+00      8.0000E+00      7.7750E-01
          7.5000E+00      8.0000E+00      7.6750E-01
          8.0000E+00      8.0000E+00      7.5750E-01
          8.5000E+00      8.0000E+00      7.4750E-01
          9.0000E+00      8.0000E+00      7.3750E-01
          9.5000E+00      8.0000E+00      7.2750E-01
          1.0000E+01      8.0000E+00      7.2667E-01
          0.0000E+00      7.5000E+00      8.8333E-01
          5.0000E-01      7.5000E+00      8.8250E-01
          1.0000E+00      7.5000E+00      8.7250E-01
          1.5000E+00      7.5000E+00      8.6250E-01
          2.0000E+00      7.5000E+00      8.5250E-01
          2.5000E+00      7.5000E+00      8.4250E-01
          3.0000E+00      7.5000E+00      8.3250E-01
          3.5000E+00      7.5000E+00      8.2250E-01
          4.0000E+00      7.5000E+00      8.1250E-01
          4.5000E+00      7.5000E+00      8.0250E-01
          5.0000E+00      7.5000E+00      7.9250E-01
          5.5000E+00      7.5000E+00      7.8250E-01
          6.0000E+00      7.5000E+00      7.7250E-01
          6.5000E+00      7.5000E+00      7.6250E-01
          7.0000E+00      7.5000E+00      7.5250E-01
          7.5000E+00      7.5000E+00      7.4250E-01
          8.0000E+00      7.5000E+00      7.3250E-01
          8.5000E+00      7.5000E+00      7.2250E-01
          9.0000E+00      7.5000E+00      7.1250E-01
          9.5000E+00      7.5000E+00      7.0250E-01
          1.0000E+01      7.5000E+00      7.0167E-01
          0.0000E+00      7.0000E+00      8.5833E-01
          5.0000E-01      7.0000E+00      8.5750E-01
          1.0000E+00      7.0000E+00      8.4750E-01
          1.5000E+00      7.0000E+00      8.3750E-01
          2.0000E+00      7.0000E+00      8.2750E-01
          2.5000E+00      7.0000E+00      8.1750E-01
          3.0000E+00      7.0000E+00      8.0750E-01
          3.5000E+00      7.0000E+00      7.9750E-01
          4.0000E+00      7.0000E+00      7.8750E-01
          4.5000E+00      7.0000E+00      7.7750E-01
          5.0000E+00      7.0000E+00      7.6750E-01
          5.5000E+00      7.0000E+00      7.5750E-01
          6.0000E+00      7.0000E+00      7.4750E-01
          6.5000E+00      7.0000E+00      7.3750E-01
          7.0000E+00      7.0000E+00      7.2750E-01
          7.5000E+00      7.0000E+00      7.1750E-01
          8.0000E+00      7.0000E+00      7.0750E-01
          8.5000E+00      7.0000E+00      6.9750E-01
          9.0000E+00      7.0000E+00      6.8750E-01
          9.5000E+00      7.0000E+00      6.7750E-01
          1.0000E+01      7.0000E+00      6.7667E-01
          0.0000E+00      6.5000E+00      8.3333E-01
          5.0000E-01      6.5000E+00      8.3250E-01
          1.0000E+00      6.5000E+00      8.2250E-01
          1.5000E+00      6.5000E+00      8.1250E-01
          2.0000E+00      6.5000E+00      8.0250E-01
          2.5000E+00      6.5000E+00      7.9250E-01
          3.0000E+00      6.5000E+00      7.8250E-01
          3.5000E+00      6.5000E+00      7.7250E-01
          4.0000E+00      6.5000E+00      7.6250E-01
          4.5000E+00      6.5000E+00      7.5250E-01
          5.0000E+00      6.5000E+00      7.4250E-01
          5.5000E+00      6.5000E+00      7.3250E-01
          6.0000E+00      6.5000E+00      7.2250E-01
          6.5000E+00      6.5000E+00      7.1250E-01
          7.0000E+00      6.5000E+00      7.0250E-01
          7.5000E+00      6.5000E+00      6.9250E-01
          8.0000E+00      6.5000E+00      6.8250E-01
          8.5000E+00      6.5000E+00      6.7250E-01
          9.0000E+00      6.5000E+00      6.6250E-01
          9.5000E+00      6.5000E+00      6.5250E-01
          1.0000E+01      6.5000E+00      6.5167E-01
          0.0000E+00      6.0000E+00      8.0833E-01
          5.0000E-01      6.0000E+00      8.0750E-01
          1.0000E+00      6.0000E+00      7.9750E-01
          1.5000E+00      6.0000E+00      7.8750E-01
          2.0000E+00      6.0000E+00      7.7750E-01
          2.5000E+00      6.0000E+00      7.6750E-01
          3.0000E+00      6.0000E+00      7.5750E-01
          3.5000E+00      6.0000E+00      7.4750E-01
          4.0000E+00      6.0000E+00      7.3750E-01
          4.5000E+00      6.0000E+00      7.2750E-01
          5.0000E+00      6.0000E+00      7.1750E-01
          5.5000E+00      6.0000E+00      7.0750E-01
          6.0000E+00      6.0000E+00      6.9750E-01
          6.5000E+00      6.0000E+00      6.8750E-01
          7.0000E+00      6.0000E+00      6.7750E-01
          7.5000E+00      6.0000E+00      6.6750E-01
          8.0000E+00      6.0000E+00      6.5750E-01
[...]
POINT_DATA     7056
SCALARS saturation float
LOOKUP_TABLE default
       0.6881630
       0.6898811
       0.6907311
       0.6913075
       0.6918221
       0.6922754
       0.6927020
       0.6930972
       0.6934760
       0.6938659
       0.6942657
       0.6947044
       0.6952108
       0.6958231
       0.6966071
       0.6976284
       0.6990160
       0.7009805
       0.7036340
       0.7101978
       0.7124783
       0.6915233
       0.6919050
       0.6940081
       0.6944577
       0.6950498
       0.6956067
       0.6961282
       0.6966313
       0.6971334
       0.6976450
       0.6981871
       0.6987974
       0.6994998
       0.7003469
       0.7014197
       0.7028022
       0.7046708
       0.7073323
       0.7111935
       0.7194614
       0.7196617
       0.6949202
       0.6957115
       0.6990180
       0.7000745
       0.7013263
       0.7024716
       0.7035532
       0.7045886
       0.7056093
       0.7066337
       0.7077186
       0.7089046
       0.7102684
       0.7119097
       0.7139741
       0.7166879
       0.7204258
       0.7257021
       0.7328635
       0.7445603
       0.7453459
       0.6982565
       0.6985338
       0.7027612
       0.7046121
       0.7065909
       0.7084240
       0.7101669
       0.7118617
       0.7135586
       0.7153178
       0.7172148
       0.7193415
       0.7218358
       0.7248615
       0.7285734
       0.7331521
       0.7389578
       0.7465098
       0.7565056
       0.7727808
       0.7736991
       0.7021431
       0.7021371
       0.7074168
       0.7101746
       0.7130105
       0.7157307
       0.7184079
       0.7210992
       0.7238608
       0.7267460
       0.7297881
       0.7330537
       0.7366929
       0.7408961
       0.7459208
       0.7520977
       0.7599608
       0.7711215
       0.7872233
       0.8095972
       0.8104916
       0.7065212
       0.7063526
       0.7126938
       0.7166240
       0.7206812
       0.7247063
       0.7286841
       0.7325351
       0.7363029
       0.7400951
       0.7440370
       0.7482911
       0.7530585
       0.7586128
       0.7655323
       0.7751409
       0.7873819
       0.8027794
       0.8223444
       0.8488481
       0.8496448
       0.7114647
       0.7112329
       0.7189214
       0.7244583
       0.7300481
       0.7353008
       0.7402656
       0.7450472
       0.7497781
       0.7546038
       0.7597119
       0.7654807
       0.7726831
       0.7813059
       0.7913240
       0.8033119
       0.8178873
       0.8353992
       0.8608793
       0.8951498
       0.8961854
       0.7173116
       0.7170928
       0.7265384
       0.7336747
       0.7404076
       0.7467296
       0.7528060
       0.7587994
       0.7650061
       0.7720563
       0.7798500
       0.7881087
       0.7970808
       0.8071297
       0.8187328
       0.8322160
       0.8500466
       0.8739243
       0.9039116
       0.9401232
       0.9404403
       0.7245670
       0.7243548
       0.7352983
       0.7437321
       0.7517290
       0.7594675
       0.7674132
       0.7762594
       0.7851544
       0.7940039
       0.8029501
       0.8123252
       0.8224809
       0.8335739
       0.8476342
       0.8655533
       0.8873611
       0.9137110
       0.9478251
       0.9798677
       0.9791834
       0.7330108
       0.7328181
       0.7450386
       0.7550178
       0.7649193
       0.7758802
       0.7868197
       0.7972637
       0.8072788
       0.8171821
       0.8271448
       0.8373546
       0.8501893
       0.8648917
       0.8817184
       0.9013262
       0.9237400
       0.9542289
       1.0000000
       1.0000000
       1.0000000
       0.7425039
       0.7425038
       0.7563068
       0.7689512
       0.7828052
       0.7959779
       0.8082542
       0.8198610
       0.8308742
       0.8420647
       0.8550575
       0.8686116
       0.8830634
       0.8987940
       0.9158642
       0.9361136
       0.9591095
       0.9819407
       1.0000000
       1.0000000
       1.0000000
       0.7537501
       0.7540563
       0.7709640
       0.7878253
       0.8036907
       0.8183257
       0.8317657
       0.8452480
       0.8596435
       0.8738131
       0.8879422
       0.9021879
       0.9166066
       0.9328437
       0.9507054
       0.9705096
       0.9879343
       1.0000000
       1.0000000
       1.0000000
       1.0000000
       0.7688861
       0.7694181
       0.7907419
       0.8099503
       0.8275330
       0.8440112
       0.8613680
       0.8778786
       0.8934649
       0.9081537
       0.9220074
       0.9368661
       0.9519668
       0.9683210
       0.9823195
       1.0000000
       1.0000000
       1.0000000
       1.0000000
       1.0000000
       1.0000000
       0.7904233
       0.7909588
       0.8148011
       0.8358047
       0.8574138
       0.8780110
       0.8970476
       0.9140954
       0.9295412
       0.9446562
       0.9595327
       0.9725364
       0.9841085
       1.0000000
       1.0000000
       1.0000000
       1.0000000
       1.0000000
       1.0000000
       1.0000000
       1.0000000
       0.8167138
       0.8174675
       0.8441542
       0.8709814
       0.8958084
       0.9169144
       0.9363519
       0.9548358
       0.9688119
       0.9799599
       0.9930691
       1.0000000
       1.0000000
       1.0000000
       1.0000000
       1.0000000
       1.0000000
       1.0000000
       1.0000000
       1.0000000
       1.0000000
       0.8507586
       0.8513679
       0.8850142
       0.9142734
       0.9404061
       0.9613431
       0.9774887
       0.9966236
       1.0000000
       1.0000000
       1.0000000
       1.0000000
       1.0000000
       1.0000000
       1.0000000
       1.0000000
       1.0000000
       1.0000000
       1.0000000
       1.0000000
       1.0000000
       0.8977415
       0.8983802
       0.9364083
       0.9641843
       0.9902734
       1.0000000
       1.0000000
       1.0000000
       1.0000000
       1.0000000
       1.0000000
       1.0000000
       1.0000000
       1.0000000
       1.0000000
       1.0000000
       1.0000000
       1.0000000
       1.0000000
       1.0000000
       1.0000000
       0.9545721
       0.9559141
       1.0000000
       1.0000000
       1.0000000
       1.0000000
       1.0000000
       1.0000000
       1.0000000
       1.0000000
       1.0000000
       1.0000000
       1.0000000
       1.0000000
       1.0000000
       1.0000000
       1.0000000
       1.0000000
       1.0000000
       1.0000000
       1.0000000
       1.0000000
       1.0000000
       1.0000000
       1.0000000
       1.0000000
       1.0000000
       1.0000000
       1.0000000
       1.0000000
       1.0000000
       1.0000000
       1.0000000
       1.0000000
       1.0000000
       1.0000000
       1.0000000
       1.0000000
       1.0000000
       1.0000000
       1.0000000
       1.0000000
       1.0000000
       1.0000000
       1.0000000
       1.0000000
       1.0000000
       1.0000000
       1.0000000
       1.0000000
       1.0000000
       1.0000000
       1.0000000
       1.0000000
       1.0000000
       1.0000000
       1.0000000
       1.0000000
       1.0000000
       1.0000000
       1.0000000
       1.0000000
       1.0000000
       1.0000000
       1.0000000
       1.0000000
       1.0000000
       1.0000000
       1.0000000
       1.0000000
       1.0000000
       1.0000000
       1.0000000
       1.0000000
       1.0000000
       1.0000000
       1.0000000
       1.0000000
       1.0000000
       1.0000000
       1.0000000
       1.0000000
       1.0000000
       1.0000000
       0.6983019
       0.6999995
       0.7009166
       0.7015377
       0.7020928
       0.7025818
       0.7030422
       0.7034689
       0.7038782
       0.7042995
       0.7047319
       0.7052064
       0.7057545
       0.7064177
       0.7072675
       0.7083763
       0.7098859
       0.7120247
       0.7149171
       0.7220207
       0.7241884
       0.7017544
       0.7018703
       0.7041337
       0.7046165
       0.7052535
       0.7058535
       0.7064160
       0.7069594
       0.7075023
       0.7080562
       0.7086440
       0.7093067
       0.7100707
       0.7109940
       0.7121654
       0.7136764
       0.7157154
       0.7186137
       0.7228136
       0.7317544
       0.7316826
       0.7054066
       0.7059539
       0.7095119
       0.7106500
       0.7119998
       0.7132379
       0.7144095
       0.7155336
       0.7166442
       0.7177606
       0.7189432
       0.7202359
       0.7217218
       0.7235090
       0.7257553
       0.7287063
       0.7327719
       0.7385441
       0.7464272
       0.7592560
       0.7598430
       0.7090003
       0.7089914
       0.7135464
       0.7155491
       0.7176941
       0.7196852
       0.7215788
       0.7234203
       0.7252643
       0.7271760
       0.7292374
       0.7315497
       0.7342653
       0.7375725
       0.7416569
       0.7467029
       0.7531033
       0.7614374
       0.7724753
       0.7902677
       0.7909980
       0.7131984
       0.7128845
       0.7185899
       0.7215825
       0.7246564
       0.7276058
       0.7305099
       0.7334326
       0.7364397
       0.7395979
       0.7429492
       0.7465520
       0.7505681
       0.7552084
       0.7607597
       0.7675865
       0.7762622
       0.7884960
       0.8063541
       0.8311436
       0.8319524
       0.7179469
       0.7174613
       0.7243193
       0.7285768
       0.7329737
       0.7373496
       0.7417063
       0.7459499
       0.7501068
       0.7542941
       0.7586489
       0.7633503
       0.7686209
       0.7747539
       0.7823571
       0.7929348
       0.8065223
       0.8236320
       0.8453888
       0.8746069
       0.8753383
       0.7233131
       0.7227631
       0.7310773
       0.7370883
       0.7432098
       0.7489946
       0.7544706
       0.7597487
       0.7649732
       0.7703051
       0.7759422
       0.7822786
       0.7901838
       0.7997583
       0.8108941
       0.8242237
       0.8404322
       0.8598796
       0.8879145
       0.9249504
       0.9259813
       0.7296605
       0.7291297
       0.7393803
       0.7472211
       0.7546374
       0.7616095
       0.7683144
       0.7749259
       0.7817450
       0.7894688
       0.7981206
       0.8073035
       0.8172866
       0.8284688
       0.8413734
       0.8563554
       0.8760078
       0.9021658
       0.9342522
       0.9704840
       0.9707501
       0.7375676
       0.7370592
       0.7490389
       0.7583273
       0.7671425
       0.7756705
       0.7843802
       0.7941291
       0.8040083
       0.8138535
       0.8238124
       0.8342422
       0.8455383
       0.8578602
       0.8733478
       0.8930351
       0.9166835
       0.9444832
       0.9775856
       0.9998922
       0.9997205
       0.7468524
       0.7463960
       0.7598030
       0.7707981
       0.7816776
       0.7937285
       0.8058676
       0.8174848
       0.8286282
       0.8396423
       0.8507201
       0.8620341
       0.8761634
       0.8923152
       0.9106132
       0.9315372
       0.9545904
       0.9831400
       1.0000000
       1.0000000
       1.0000000
       0.7573110
       0.7570947
       0.7722609
       0.7861162
       0.8014404
       0.8160725
       0.8297244
       0.8426278
       0.8548646
       0.8671936
       0.8815217
       0.8963794
       0.9120657
       0.9288728
       0.9466472
       0.9667121
       0.9871472
       1.0000000
       1.0000000
       1.0000000
       1.0000000
       0.7697060
       0.7698647
       0.7883833
       0.8070554
       0.8246753
       0.8409374
       0.8558648
       0.8707207
       0.8865669
       0.9020476
       0.9173122
       0.9324522
       0.9474104
       0.9635787
       0.9801189
       0.9954235
       1.0000000
       1.0000000
       1.0000000
       1.0000000
       1.0000000
       0.7863478
       0.7867644
       0.8103445
       0.8316680
       0.8511894
       0.8693747
       0.8884729
       0.9064704
       0.9232214
       0.9386926
       0.9528662
       0.9674410
       0.9812171
       0.9940040
       1.0000000
       1.0000000
       1.0000000
       1.0000000
       1.0000000
       1.0000000
       1.0000000
       0.8102135
       0.8106776
       0.8370954
       0.8603878
       0.8841637
       0.9066310
       0.9270390
       0.9448420
       0.9603603
       0.9747073
       0.9874966
       0.9966553
       1.0000000
       1.0000000
       1.0000000
       1.0000000
       1.0000000
       1.0000000
       1.0000000
       1.0000000
       1.0000000
       0.8393779
       0.8401309
       0.8696110
       0.8990272
       0.9257383
       0.9477394
       0.9669655
       0.9836598
       0.9943307
       0.9999099
       1.0000000
       1.0000000
       1.0000000
       1.0000000
       1.0000000
       1.0000000
       1.0000000
       1.0000000
       1.0000000
       1.0000000
       1.0000000
       0.8770010
       0.8776212
       0.9142471
       0.9450561
       0.9708013
       0.9889319
       0.9991319
       1.0000000
       1.0000000
       1.0000000
       1.0000000
       1.0000000
       1.0000000
       1.0000000
       1.0000000
       1.0000000
       1.0000000
       1.0000000
       1.0000000
       1.0000000
       1.0000000
       0.9278807
       0.9285668
       0.9670621
       0.9910809
       1.0000000
       1.0000000
       1.0000000
       1.0000000
       1.0000000
       1.0000000
       1.0000000
       1.0000000
       1.0000000
       1.0000000
       1.0000000
       1.0000000
       1.0000000
       1.0000000
       1.0000000
       1.0000000
       1.0000000
       0.9834770
       0.9845857
       1.0000000
       1.0000000
       1.0000000
       1.0000000
       1.0000000
       1.0000000
       1.0000000
       1.0000000
       1.0000000
       1.0000000
       1.0000000
       1.0000000
       1.0000000
       1.0000000
       1.0000000
       1.0000000
       1.0000000
       1.0000000
       1.0000000
       1.0000000
       1.0000000
       1.0000000
       1.0000000
       1.0000000
       1.0000000
       1.0000000
       1.0000000
       1.0000000
       1.0000000
       1.0000000
       1.0000000
       1.0000000
       1.0000000
       1.0000000
       1.0000000
       1.0000000
       1.0000000
       1.0000000
       1.0000000
       1.0000000
       1.0000000
       1.0000000
       1.0000000
       1.0000000
       1.0000000
       1.0000000
       1.0000000
       1.0000000
       1.0000000
       1.0000000
       1.0000000
       1.0000000
       1.0000000
       1.0000000
       1.0000000
       1.0000000
       1.0000000
       1.0000000
       1.0000000
       1.0000000
       1.0000000
       1.0000000
       1.0000000
       1.0000000
       1.0000000
       1.0000000
       1.0000000
       1.0000000
       1.0000000
       1.0000000
       1.0000000
       1.0000000
       1.0000000
       1.0000000
       1.0000000
       1.0000000
       1.0000000
       1.0000000
       1.0000000
       1.0000000
       1.0000000
       1.0000000
       0.7163330
       0.7178515
       0.7189412
       0.7196699
       0.7203233
       0.7209005
       0.7214442
       0.7219499
       0.7224376
       0.7229386
       0.7234565
       0.7240256
       0.7246844
       0.7254849
       0.7265153
       0.7278751
       0.7297518
       0.7324233
       0.7360514
       0.7443791
       0.7459839
       0.7198619
       0.7191343
       0.7217416
       0.7222974
       0.7230312
       0.7237285
       0.7243880
       0.7250288
       0.7256736
       0.7263361
       0.7270454
       0.7278505
       0.7287879
       0.7299341
       0.7314029
       0.7333103
       0.7358576
       0.7394224
       0.7445286
       0.7548946
       0.7540043
       0.7240721
       0.7237987
       0.7278762
       0.7291956
       0.7307600
       0.7322154
       0.7336101
       0.7349664
       0.7363234
       0.7377017
       0.7391637
       0.7407582
       0.7425838
       0.7447673
       0.7474940
       0.7510482
       0.7559251
       0.7630373
       0.7730906
       0.7889310
       0.7888845
       0.7282166
       0.7273062
       0.7325489
       0.7349239
       0.7374830
       0.7398894
       0.7421791
       0.7444024
       0.7466249
       0.7489235
       0.7513967
       0.7541685
       0.7574367
       0.7614899
       0.7666907
       0.7731666
       0.7813450
       0.7919797
       0.8059985
       0.8270202
       0.8271964
       0.7331347
       0.7318874
       0.7385480
       0.7421500
       0.7458020
       0.7493004
       0.7527419
       0.7562155
       0.7598290
       0.7637253
       0.7680208
       0.7726761
       0.7778520
       0.7838176
       0.7909472
       0.7996848
       0.8106151
       0.8252941
       0.8479301
       0.8787339
       0.8794504
       0.7388505
       0.7374252
       0.7454422
       0.7504704
       0.7556359
       0.7608438
       0.7662316
       0.7716796
       0.7770365
       0.7824363
       0.7880461
       0.7940841
       0.8008337
       0.8086002
       0.8179211
       0.8308441
       0.8481255
       0.8697644
       0.8969937
       0.9314190
       0.9321036
       0.7453104
       0.7438421
       0.7534865
       0.7605974
       0.7681658
       0.7755563
       0.7825804
       0.7893480
       0.7960268
       0.8028269
       0.8099401
       0.8176934
       0.8271889
       0.8394335
       0.8536501
       0.8705356
       0.8908586
       0.9147484
       0.9469957
       0.9838990
       0.9847703
       0.7528802
       0.7514942
       0.7635275
       0.7734240
       0.7828683
       0.7917523
       0.8002656
       0.8085999
       0.8169649
       0.8261569
       0.8372154
       0.8489856
       0.8617315
       0.8759039
       0.8920620
       0.9105294
       0.9335062
       0.9623903
       0.9913772
       1.0000000
       1.0000000
       0.7624715
       0.7612052
       0.7759562
       0.7877483
       0.7988993
       0.8095898
       0.8201180
       0.8320880
       0.8447074
       0.8573034
       0.8699959
       0.8831419
       0.8972385
       0.9123673
       0.9304345
       0.9526735
       0.9767296
       0.9976701
       1.0000000
       1.0000000
       1.0000000
       0.7744096
       0.7732981
       0.7898737
       0.8037083
       0.8170761
       0.8317141
       0.8471361
       0.8619589
       0.8760816
       0.8898882
       0.9036364
       0.9173349
       0.9337082
       0.9519181
       0.9709549
       0.9893685
       1.0000000
       1.0000000
       1.0000000
       1.0000000
       1.0000000
       0.7878679
       0.7871168
       0.8058317
       0.8225290
       0.8417094
       0.8602761
       0.8775275
       0.8936448
       0.9087315
       0.9231964
       0.9398533
       0.9563171
       0.9723805
       0.9873233
       0.9986371
       1.0000000
       1.0000000
       1.0000000
       1.0000000
       1.0000000
       1.0000000
       0.8036090
       0.8034712
       0.8256180
       0.8491027
       0.8713191
       0.8916310
       0.9100048
       0.9274057
       0.9455779
       0.9623075
       0.9773455
       0.9900817
       0.9989471
       1.0000000
       1.0000000
       1.0000000
       1.0000000
       1.0000000
       1.0000000
       1.0000000
       1.0000000
       0.8239929
       0.8242492
       0.8535914
       0.8803037
       0.9044102
       0.9259156
       0.9477602
       0.9668738
       0.9826443
       0.9943893
       1.0000000
       1.0000000
       1.0000000
       1.0000000
       1.0000000
       1.0000000
       1.0000000
       1.0000000
       1.0000000
       1.0000000
       1.0000000
       0.8542569
       0.8546487
       0.8872792
       0.9157031
       0.9430743
       0.9670949
       0.9858807
       0.9978410
       1.0000000
       1.0000000
       1.0000000
       1.0000000
       1.0000000
       1.0000000
       1.0000000
       1.0000000
       1.0000000