# vtk DataFile Version 2.0
3D Unstructured Grid of Linear Triangles
ASCII
DATASET UNSTRUCTURED_GRID
FIELD FieldData  1
TIME 1 1 double
        3600.00000
POINTS     7056 float
          0.0000E+00      1.0000E+01      1.0000E+00
          5.0000E-01      1.0000E+01      9.9333E-01
          1.0000E+00      1.0000E+01      9.8333E-01
          1.5000E+00      1.0000E+01      9.7333E-01
          2.0000E+00      1.0000E+01      9.6333E-01
          2.5000E+00      1.0000E+01      9.5333E-01
          3.0000E+00      1.0000E+01      9.4333E-01
          3.5000E+00      1.0000E+01      9.3333E-01
          4.0000E+00      1.0000E+01      9.2333E-01
          4.5000E+00      1.0000E+01      9.1333E-01
          5.0000E+00      1.0000E+01      9.0333E-01
          5.5000E+00      1.0000E+01      8.9333E-01
          6.0000E+00      1.0000E+01      8.8333E-01
          6.5000E+00      1.0000E+01      8.7333E-01
          7.0000E+00      1.0000E+01      8.6333E-01
          7.5000E+00      1.0000E+01      8.5333E-01
          8.0000E+00      1.0000E+01      8.4333E-01
          8.5000E+00      1.0000E+01      8.3333E-01
          9.0000E+00      1.0000E+01      8.2333E-01
          9.5000E+00      1.0000E+01      8.1333E-01
          1.0000E+01      1.0000E+01      8.1000E-01
          0.0000E+00      9.5000E+00      9.8333E-01
          5.0000E-01      9.5000E+00      9.8250E-01
          1.0000E+00      9.5000E+00      9.7250E-01
          1.5000E+00      9.5000E+00      9.6250E-01
          2.0000E+00      9.5000E+00      9.5250E-01
          2.5000E+00      9.5000E+00      9.4250E-01
          3.0000E+00      9.5000E+00      9.3250E-01
          3.5000E+00      9.5000E+00      9.2250E-01
          4.0000E+00      9.5000E+00      9.1250E-01
          4.5000E+00      9.5000E+00      9.0250E-01
          5.0000E+00      9.5000E+00      8.9250E-01
          5.5000E+00      9.5000E+00      8.8250E-01
          6.0000E+00      9.5000E+00      8.7250E-01
          6.5000E+00      9.5000E+00      8.6250E-01
          7.0000E+00      9.5000E+00      8.5250E-01
          7.5000E+00      9.5000E+00      8.4250E-01
          8.0000E+00      9.5000E+00      8.3250E-01
          8.5000E+00      9.5000E+00      8.2250E-01
          9.0000E+00      9.5000E+00      8.1250E-01
          9.5000E+00      9.5000E+00      8.0250E-01
          1.0000E+01      9.5000E+00      8.0167E-01
          0.0000E+00      9.0000E+00      9.5833E-01
          5.0000E-01      9.0000E+00      9.5750E-01
          1.0000E+00      9.0000E+00      9.4750E-01
          1.5000E+00      9.0000E+00      9.3750E-01
          2.0000E+00      9.0000E+00      9.2750E-01
          2.5000E+00      9.0000E+00      9.1750E-01
          3.0000E+00      9.0000E+00      9.0750E-01
          3.5000E+00      9.0000E+00      8.9750E-01
          4.0000E+00      9.0000E+00      8.8750E-01
          4.5000E+00      9.0000E+00      8.7750E-01
          5.0000E+00      9.0000E+00      8.6750E-01
          5.5000E+00      9.0000E+00      8.5750E-01
          6.0000E+00      9.0000E+00      8.4750E-01
          6.5000E+00      9.0000E+00      8.3750E-01
          7.0000E+00      9.0000E+00      8.2750E-01
          7.5000E+00      9.0000E+00      8.1750E-01
          8.0000E+00      9.0000E+00      8.0750E-01
          8.5000E+00      9.0000E+00      7.9750E-01
          9.0000E+00      9.0000E+00      7.8750E-01
          9.5000E+00      9.0000E+00      7.7750E-01
          1.0000E+01      9.0000E+00      7.7667E-01
          0.0000E+00      8.5000E+00      9.3333E-01
          5.0000E-01      8.5000E+00      9.3250E-01
          1.0000E+00      8.5000E+00      9.2250E-01
          1.5000E+00      8.5000E+00      9.1250E-01
          2.0000E+00      8.5000E+00      9.0250E-01
          2.5000E+00      8.5000E+00      8.9250E-01
          3.0000E+00      8.5000E+00      8.8250E-01
          3.5000E+00      8.5000E+00      8.7250E-01
          4.0000E+00      8.5000E+00      8.6250E-01
          4.5000E+00      8.5000E+00      8.5250E-01
          5.0000E+00      8.5000E+00      8.4250E-01
          5.5000E+00      8.5000E+00      8.3250E-01
          6.0000E+00      8.5000E+00      8.2250E-01
          6.5000E+00      8.5000E+00      8.1250E-01
          7.0000E+00      8.5000E+00      8.0250E-01
          7.5000E+00      8.5000E+00      7.9250E-01
          8.0000E+00      8.5000E+00      7.8250E-01
          8.5000E+00      8.5000E+00      7.7250E-01
          9.0000E+00      8.5000E+00      7.6250E-01
          9.5000E+00      8.5000E+00      7.5250E-01
          1.0000E+01      8.5000E+00      7.5167E-01
          0.0000E+00      8.0000E+00      9.0833E-01
          5.0000E-01      8.0000E+00      9.0750E-01
          1.0000E+00      8.0000E+00      8.9750E-01
          1.5000E+00      8.0000E+00      8.8750E-01
          2.0000E+00      8.0000E+00      8.7750E-01
          2.5000E+00      8.0000E+00      8.6750E-01
          3.0000E+00      8.0000E+00      8.5750E-01
          3.5000E+00      8.0000E+00      8.4750E-01
          4.0000E+00      8.0000E+00      8.3750E-01
          4.5000E+00      8.0000E+00      8.2750E-01
          5.0000E+00      8.0000E+00      8.1750E-01
          5.5000E+00      8.0000E+00      8.0750E-01
          6.0000E+00      8.0000E+00      7.9750E-01
          6.5000E+00      8.0000E+00      7.8750E-01
          7.0000E+00      8.0000E+00      7.7750E-01
          7.5000E+00      8.0000E+00      7.6750E-01
          8.0000E+00      8.0000E+00      7.5750E-01
          8.5000E+00      8.0000E+00      7.4750E-01
          9.0000E+00      8.0000E+00      7.3750E-01
          9.5000E+00      8.0000E+00      7.2750E-01
          1.0000E+01      8.0000E+00      7.2667E-01
          0.0000E+00      7.5000E+00      8.8333E-01
          5.0000E-01      7.5000E+00      8.8250E-01
          1.0000E+00      7.5000E+00      8.7250E-01
          1.5000E+00      7.5000E+00      8.6250E-01
          2.0000E+00      7.5000E+00      8.5250E-01
          2.5000E+00      7.5000E+00      8.4250E-01
          3.0000E+00      7.5000E+00      8.3250E-01
          3.5000E+00      7.5000E+00      8.2250E-01
          4.0000E+00      7.5000E+00      8.1250E-01
          4.5000E+00      7.5000E+00      8.0250E-01
          5.0000E+00      7.5000E+00      7.9250E-01
          5.5000E+00      7.5000E+00      7.8250E-01
          6.0000E+00      7.5000E+00      7.7250E-01
          6.5000E+00      7.5000E+00      7.6250E-01
          7.0000E+00      7.5000E+00      7.5250E-01
          7.5000E+00      7.5000E+00      7.4250E-01
          8.0000E+00      7.5000E+00      7.3250E-01
          8.5000E+00      7.5000E+00      7.2250E-01
          9.0000E+00      7.5000E+00      7.1250E-01
          9.5000E+00      7.5000E+00      7.0250E-01
          1.0000E+01      7.5000E+00      7.0167E-01
          0.0000E+00      7.0000E+00      8.5833E-01
          5.0000E-01      7.0000E+00      8.5750E-01
          1.0000E+00      7.0000E+00      8.4750E-01
          1.5000E+00      7.0000E+00      8.3750E-01
          2.0000E+00      7.0000E+00      8.2750E-01
          2.5000E+00      7.0000E+00      8.1750E-01
          3.0000E+00      7.0000E+00      8.0750E-01
          3.5000E+00      7.0000E+00      7.9750E-01
          4.0000E+00      7.0000E+00      7.8750E-01
          4.5000E+00      7.0000E+00      7.7750E-01
          5.0000E+00      7.0000E+00      7.6750E-01
          5.5000E+00      7.0000E+00      7.5750E-01
          6.0000E+00      7.0000E+00      7.4750E-01
          6.5000E+00      7.0000E+00      7.3750E-01
          7.0000E+00      7.0000E+00      7.2750E-01
          7.5000E+00      7.0000E+00      7.1750E-01
          8.0000E+00      7.0000E+00      7.0750E-01
          8.5000E+00      7.0000E+00      6.9750E-01
          9.0000E+00      7.0000E+00      6.8750E-01
          9.5000E+00      7.0000E+00      6.7750E-01
          1.0000E+01      7.0000E+00      6.7667E-01
          0.0000E+00      6.5000E+00      8.3333E-01
          5.0000E-01      6.5000E+00      8.3250E-01
          1.0000E+00      6.5000E+00      8.2250E-01
          1.5000E+00      6.5000E+00      8.1250E-01
          2.0000E+00      6.5000E+00      8.0250E-01
          2.5000E+00      6.5000E+00      7.9250E-01
          3.0000E+00      6.5000E+00      7.8250E-01
          3.5000E+00      6.5000E+00      7.7250E-01
          4.0000E+00      6.5000E+00      7.6250E-01
          4.5000E+00      6.5000E+00      7.5250E-01
          5.0000E+00      6.5000E+00      7.4250E-01
          5.5000E+00      6.5000E+00      7.3250E-01
          6.0000E+00      6.5000E+00      7.2250E-01
          6.5000E+00      6.5000E+00      7.1250E-01
          7.0000E+00      6.5000E+00      7.0250E-01
          7.5000E+00      6.5000E+00      6.9250E-01
          8.0000E+00      6.5000E+00      6.8250E-01
          8.5000E+00      6.5000E+00      6.7250E-01
          9.0000E+00      6.5000E+00      6.6250E-01
          9.5000E+00      6.5000E+00      6.5250E-01
          1.0000E+01      6.5000E+00      6.5167E-01
          0.0000E+00      6.0000E+00      8.0833E-01
          5.0000E-01      6.0000E+00      8.0750E-01
          1.0000E+00      6.0000E+00      7.9750E-01
          1.5000E+00      6.0000E+00      7.8750E-01
          2.0000E+00      6.0000E+00      7.7750E-01
          2.5000E+00      6.0000E+00      7.6750E-01
          3.0000E+00      6.0000E+00      7.5750E-01
          3.5000E+00      6.0000E+00      7.4750E-01
          4.0000E+00      6.0000E+00      7.3750E-01
          4.5000E+00      6.0000E+00      7.2750E-01
          5.0000E+00      6.0000E+00      7.1750E-01
          5.5000E+00      6.0000E+00      7.0750E-01
          6.0000E+00      6.0000E+00      6.9750E-01
          6.5000E+00      6.0000E+00      6.8750E-01
          7.0000E+00      6.0000E+00      6.7750E-01
          7.5000E+00      6.0000E+00      6.6750E-01
          8.0000E+00      6.0000E+00      6.5750E-01
[...]
POINT_DATA     7056
SCALARS saturation float
LOOKUP_TABLE default
       0.6557496
       0.6571731
       0.6577264
       0.6581338
       0.6585248
       0.6588870
       0.6592398
       0.6595787
       0.6599151
       0.6602614
       0.6606232
       0.6610153
       0.6614575
       0.6619741
       0.6626073
       0.6634063
       0.6644612
       0.6659322
       0.6677769
       0.6726579
       0.6738299
       0.6582609
       0.6589506
       0.6605365
       0.6607285
       0.6611079
       0.6614706
       0.6618223
       0.6621706
       0.6625277
       0.6628984
       0.6632978
       0.6637501
       0.6642740
       0.6649097
       0.6657147
       0.6667590
       0.6681650
       0.6701295
       0.6727947
       0.6785637
       0.6785090
       0.6605517
       0.6615192
       0.6639147
       0.6644299
       0.6652295
       0.6659606
       0.6666643
       0.6673529
       0.6680499
       0.6687714
       0.6695540
       0.6704262
       0.6714391
       0.6726605
       0.6741869
       0.6761588
       0.6787859
       0.6823491
       0.6870276
       0.6950461
       0.6959080
       0.6628062
       0.6631288
       0.6660716
       0.6669961
       0.6681917
       0.6693240
       0.6704397
       0.6715631
       0.6727199
       0.6739469
       0.6752893
       0.6768074
       0.6785872
       0.6807404
       0.6834062
       0.6867318
       0.6909095
       0.6962749
       0.7032948
       0.7147417
       0.7156471
       0.6653711
       0.6653057
       0.6688985
       0.6703479
       0.6720567
       0.6737258
       0.6754068
       0.6771313
       0.6789414
       0.6808890
       0.6830406
       0.6854653
       0.6882361
       0.6914653
       0.6953387
       0.7001179
       0.7062416
       0.7145288
       0.7252226
       0.7400617
       0.7409373
       0.6682345
       0.6679395
       0.6722101
       0.6743454
       0.6767377
       0.6791409
       0.6816088
       0.6841726
       0.6868608
       0.6896969
       0.6927495
       0.6961343
       0.7000079
       0.7046076
       0.7103442
       0.7176500
       0.7265304
       0.7374171
       0.7508284
       0.7694029
       0.7704750
       0.6715657
       0.6711745
       0.6762361
       0.6792726
       0.6825887
       0.6859614
       0.6893807
       0.6928559
       0.6964613
       0.7003019
       0.7045296
       0.7093897
       0.7151883
       0.7218990
       0.7296564
       0.7388126
       0.7497131
       0.7629910
       0.7819833
       0.8071553
       0.8085410
       0.6756109
       0.6752195
       0.6812875
       0.6854839
       0.6898715
       0.6942491
       0.6986999
       0.7033301
       0.7083092
       0.7138707
       0.7199767
       0.7265611
       0.7338159
       0.7419813
       0.7513021
       0.7622805
       0.7773008
       0.7959622
       0.8192018
       0.8486326
       0.8498441
       0.6807533
       0.6804260
       0.6876886
       0.6930883
       0.6986483
       0.7043634
       0.7104476
       0.7170397
       0.7238347
       0.7308338
       0.7381762
       0.7460377
       0.7545851
       0.7644781
       0.7773494
       0.7925129
       0.8106279
       0.8320868
       0.8602085
       0.8970659
       0.8985476
       0.6872987
       0.6870983
       0.6955403
       0.7024508
       0.7098415
       0.7177884
       0.7257873
       0.7337683
       0.7418183
       0.7500503
       0.7586153
       0.7686819
       0.7804916
       0.7936751
       0.8087219
       0.8259940
       0.8464081
       0.8732211
       0.9062297
       0.9453180
       0.9459747
       0.6954161
       0.6954341
       0.7055606
       0.7150048
       0.7247155
       0.7342756
       0.7436856
       0.7529814
       0.7624414
       0.7735113
       0.7852857
       0.7977855
       0.8113275
       0.8260586
       0.8424325
       0.8632448
       0.8880930
       0.9174532
       0.9530675
       0.9860193
       0.9854655
       0.7061825
       0.7064405
       0.7193904
       0.7310790
       0.7425253
       0.7536344
       0.7648525
       0.7775006
       0.7902593
       0.8032570
       0.8166234
       0.8302821
       0.8451399
       0.8626480
       0.8824051
       0.9049809
       0.9309138
       0.9631729
       1.0000000
       1.0000000
       1.0000000
       0.7214511
       0.7218343
       0.7368388
       0.7505634
       0.7640124
       0.7789885
       0.7938555
       0.8085521
       0.8228884
       0.8366812
       0.8521513
       0.8685162
       0.8858794
       0.9044468
       0.9240434
       0.9464595
       0.9721631
       1.0000000
       1.0000000
       1.0000000
       1.0000000
       0.7405235
       0.7411651
       0.7583227
       0.7761031
       0.7941219
       0.8117461
       0.8284213
       0.8445445
       0.8614639
       0.8783198
       0.8953904
       0.9123141
       0.9290075
       0.9469716
       0.9662086
       0.9828423
       1.0000000
       1.0000000
       1.0000000
       1.0000000
       1.0000000
       0.7650315
       0.7657795
       0.7886395
       0.8106145
       0.8311907
       0.8511227
       0.8711268
       0.8905985
       0.9083892
       0.9247289
       0.9414298
       0.9585521
       0.9720734
       0.9848862
       1.0000000
       1.0000000
       1.0000000
       1.0000000
       1.0000000
       1.0000000
       1.0000000
       0.8007102
       0.8015759
       0.8284374
       0.8540170
       0.8790310
       0.9018309
       0.9222868
       0.9431391
       0.9590612
       0.9730465
       0.9846880
       1.0000000
       1.0000000
       1.0000000
       1.0000000
       1.0000000
       1.0000000
       1.0000000
       1.0000000
       1.0000000
       1.0000000
       0.8476885
       0.8481238
       0.8810077
       0.9112420
       0.9380618
       0.9583043
       0.9757663
       0.9989914
       1.0000000
       1.0000000
       1.0000000
       1.0000000
       1.0000000
       1.0000000
       1.0000000
       1.0000000
       1.0000000
       1.0000000
       1.0000000
       1.0000000
       1.0000000
       0.9151882
       0.9145225
       0.9472366
       0.9782091
       1.0000000
       1.0000000
       1.0000000
       1.0000000
       1.0000000
       1.0000000
       1.0000000
       1.0000000
       1.0000000
       1.0000000
       1.0000000
       1.0000000
       1.0000000
       1.0000000
       1.0000000
       1.0000000
       1.0000000
       1.0000000
       1.0000000
       1.0000000
       1.0000000
       1.0000000
       1.0000000
       1.0000000
       1.0000000
       1.0000000
       1.0000000
       1.0000000
       1.0000000
       1.0000000
       1.0000000
       1.0000000
       1.0000000
       1.0000000
       1.0000000
       1.0000000
       1.0000000
       1.0000000
       1.0000000
       1.0000000
       1.0000000
       1.0000000
       1.0000000
       1.0000000
       1.0000000
       1.0000000
       1.0000000
       1.0000000
       1.0000000
       1.0000000
       1.0000000
       1.0000000
       1.0000000
       1.0000000
       1.0000000
       1.0000000
       1.0000000
       1.0000000
       1.0000000
       1.0000000
       1.0000000
       1.0000000
       1.0000000
       1.0000000
       1.0000000
       1.0000000
       1.0000000
       1.0000000
       1.0000000
       1.0000000
       1.0000000
       1.0000000
       1.0000000
       1.0000000
       1.0000000
       1.0000000
       1.0000000
       1.0000000
       1.0000000
       1.0000000
       0.6637126
       0.6651234
       0.6657120
       0.6661448
       0.6665611
       0.6669474
       0.6673241
       0.6676864
       0.6680467
       0.6684180
       0.6688065
       0.6692281
       0.6697038
       0.6702598
       0.6709407
       0.6717996
       0.6729330
       0.6745119
       0.6764941
       0.6817178
       0.6827706
       0.6662689
       0.6668093
       0.6685000
       0.6687053
       0.6691109
       0.6694992
       0.6698764
       0.6702505
       0.6706343
       0.6710334
       0.6714636
       0.6719506
       0.6725145
       0.6731986
       0.6740644
       0.6751872
       0.6766977
       0.6788061
       0.6816670
       0.6878401
       0.6875832
       0.6687034
       0.6695400
       0.6720930
       0.6726453
       0.6735014
       0.6742855
       0.6750408
       0.6757803
       0.6765288
       0.6773040
       0.6781450
       0.6790823
       0.6801709
       0.6814833
       0.6831229
       0.6852405
       0.6880624
       0.6918970
       0.6969526
       0.7055970
       0.7063147
       0.6711112
       0.6712619
       0.6744016
       0.6753935
       0.6766735
       0.6778864
       0.6790820
       0.6802864
       0.6815274
       0.6828442
       0.6842854
       0.6859156
       0.6878275
       0.6901428
       0.6930155
       0.6966108
       0.7011313
       0.7069382
       0.7145361
       0.7268982
       0.7276655
       0.6738586
       0.6735930
       0.6774293
       0.6789814
       0.6808098
       0.6825973
       0.6843987
       0.6862479
       0.6881903
       0.6902825
       0.6925979
       0.6952145
       0.6982132
       0.7017102
       0.7059061
       0.7110835
       0.7177100
       0.7266930
       0.7383720
       0.7545938
       0.7553712
       0.6769282
       0.6764137
       0.6809764
       0.6832623
       0.6858234
       0.6883988
       0.6910471
       0.6938044
       0.6967052
       0.6997741
       0.7030798
       0.7067472
       0.7109450
       0.7159262
       0.7221333
       0.7300871
       0.7397951
       0.7517274
       0.7664819
       0.7868383
       0.7878376
       0.6804996
       0.6798803
       0.6852914
       0.6885440
       0.6921008
       0.6957303
       0.6994242
       0.7031840
       0.7070877
       0.7112477
       0.7158256
       0.7210846
       0.7273826
       0.7347172
       0.7432097
       0.7532566
       0.7652507
       0.7798525
       0.8008069
       0.8286445
       0.8300554
       0.6848386
       0.6842182
       0.6907129
       0.6952247
       0.6999607
       0.7046936
       0.7095095
       0.7145207
       0.7199068
       0.7259336
       0.7326012
       0.7398085
       0.7477629
       0.7567348
       0.7669986
       0.7790755
       0.7956301
       0.8162923
       0.8420605
       0.8745333
       0.8757752
       0.6903628
       0.6898115
       0.6976188
       0.7034525
       0.7094637
       0.7156445
       0.7222222
       0.7293887
       0.7368170
       0.7444853
       0.7525462
       0.7611944
       0.7706129
       0.7814737
       0.7956818
       0.8124703
       0.8325544
       0.8563494
       0.8873025
       0.9270729
       0.9285960
       0.6974278
       0.6970218
       0.7061237
       0.7135950
       0.7215810
       0.7302186
       0.7389609
       0.7477071
       0.7565493
       0.7656130
       0.7750490
       0.7860978
       0.7991568
       0.8137580
       0.8304427
       0.8495993
       0.8721420
       0.9015080
       0.9367378
       0.9753153
       0.9758941
       0.7062109
       0.7060524
       0.7169812
       0.7272112
       0.7378088
       0.7482782
       0.7586123
       0.7688482
       0.7792488
       0.7914358
       0.8044658
       0.8183167
       0.8333353
       0.8496710
       0.8677575
       0.8906336
       0.9175600
       0.9483392
       0.9821782
       1.0000000
       1.0000000
       0.7178662
       0.7179737
       0.7320291
       0.7448027
       0.7573579
       0.7695837
       0.7818944
       0.7958564
       0.8099788
       0.8243851
       0.8392116
       0.8543536
       0.8707452
       0.8899791
       0.9114454
       0.9354427
       0.9617539
       0.9903336
       1.0000000
       1.0000000
       1.0000000
       0.7344921
       0.7347577
       0.7511516
       0.7662300
       0.7810003
       0.7975248
       0.8139780
       0.8302671
       0.8461641
       0.8614384
       0.8784696
       0.8963906
       0.9151819
       0.9348813
       0.9549537
       0.9763735
       0.9964414
       1.0000000
       1.0000000
       1.0000000
       1.0000000
       0.7553737
       0.7559578
       0.7748078
       0.7943737
       0.8143004
       0.8338275
       0.8523083
       0.8701023
       0.8886929
       0.9070381
       0.9253386
       0.9430527
       0.9598717
       0.9768341
       0.9925514
       1.0000000
       1.0000000
       1.0000000
       1.0000000
       1.0000000
       1.0000000
       0.7823106
       0.7830371
       0.8082714
       0.8326028
       0.8553956
       0.8773616
       0.8992494
       0.9202480
       0.9389993
       0.9556415
       0.9717748
       0.9867365
       0.9963893
       1.0000000
       1.0000000
       1.0000000
       1.0000000
       1.0000000
       1.0000000
       1.0000000
       1.0000000
       0.8217527
       0.8226466
       0.8523782
       0.8805673
       0.9078371
       0.9321574
       0.9532175
       0.9733636
       0.9871454
       0.9969234
       1.0000000
       1.0000000
       1.0000000
       1.0000000
       1.0000000
       1.0000000
       1.0000000
       1.0000000
       1.0000000
       1.0000000
       1.0000000
       0.8736954
       0.8741366
       0.9099993
       0.9419936
       0.9686368
       0.9865381
       0.9983796
       1.0000000
       1.0000000
       1.0000000
       1.0000000
       1.0000000
       1.0000000
       1.0000000
       1.0000000
       1.0000000
       1.0000000
       1.0000000
       1.0000000
       1.0000000
       1.0000000
       0.9460925
       0.9453924
       0.9770886
       0.9993300
       1.0000000
       1.0000000
       1.0000000
       1.0000000
       1.0000000
       1.0000000
       1.0000000
       1.0000000
       1.0000000
       1.0000000
       1.0000000
       1.0000000
       1.0000000
       1.0000000
       1.0000000
       1.0000000
       1.0000000
       1.0000000
       1.0000000
       1.0000000
       1.0000000
       1.0000000
       1.0000000
       1.0000000
       1.0000000
       1.0000000
       1.0000000
       1.0000000
       1.0000000
       1.0000000
       1.0000000
       1.0000000
       1.0000000
       1.0000000
       1.0000000
       1.0000000
       1.0000000
       1.0000000
       1.0000000
       1.0000000
       1.0000000
       1.0000000
       1.0000000
       1.0000000
       1.0000000
       1.0000000
       1.0000000
       1.0000000
       1.0000000
       1.0000000
       1.0000000
       1.0000000
       1.0000000
       1.0000000
       1.0000000
       1.0000000
       1.0000000
       1.0000000
       1.0000000
       1.0000000
       1.0000000
       1.0000000
       1.0000000
       1.0000000
       1.0000000
       1.0000000
       1.0000000
       1.0000000
       1.0000000
       1.0000000
       1.0000000
       1.0000000
       1.0000000
       1.0000000
       1.0000000
       1.0000000
       1.0000000
       1.0000000
       1.0000000
       1.0000000
       0.6781271
       0.6793658
       0.6800268
       0.6805039
       0.6809711
       0.6814103
       0.6818429
       0.6822640
       0.6826878
       0.6831286
       0.6835953
       0.6841067
       0.6846870
       0.6853659
       0.6861925
       0.6872292
       0.6885881
       0.6904619
       0.6928262
       0.6987945
       0.6993435
       0.6806091
       0.6806503
       0.6825673
       0.6828064
       0.6832749
       0.6837283
       0.6841730
       0.6846178
       0.6850778
       0.6855593
       0.6860806
       0.6866699
       0.6873499
       0.6881715
       0.6892070
       0.6905450
       0.6923334
       0.6948070
       0.6981540
       0.7051778
       0.7042703
       0.6833228
       0.6837284
       0.6866101
       0.6872609
       0.6882543
       0.6891742
       0.6900649
       0.6909388
       0.6918233
       0.6927404
       0.6937349
       0.6948434
       0.6961289
       0.6976741
       0.6995965
       0.7020690
       0.7053563
       0.7098561
       0.7159195
       0.7260512
       0.7262054
       0.6860806
       0.6857289
       0.6892909
       0.6904619
       0.6919438
       0.6933512
       0.6947396
       0.6961406
       0.6975868
       0.6991232
       0.7008047
       0.7027064
       0.7049368
       0.7076448
       0.7110390
       0.7153617
       0.7208067
       0.7277707
       0.7368176
       0.7511319
       0.7514061
       0.6892947
       0.6884465
       0.6928067
       0.6946072
       0.6967052
       0.6987642
       0.7008427
       0.7029797
       0.7052293
       0.7076620
       0.7103754
       0.7134880
       0.7171121
       0.7213429
       0.7264060
       0.7326231
       0.7404750
       0.7511077
       0.7654516
       0.7851984
       0.7856772
       0.6928943
       0.6917276
       0.6969113
       0.6995417
       0.7024722
       0.7054301
       0.7084868
       0.7117026
       0.7151473
       0.7188493
       0.7228429
       0.7272703
       0.7323223
       0.7382607
       0.7455684
       0.7552000
       0.7671676
       0.7819406
       0.8003695
       0.8248505
       0.8256349
       0.6970592
       0.6957573
       0.7018986
       0.7056295
       0.7097179
       0.7139597
       0.7183709
       0.7228886
       0.7275810
       0.7325723
       0.7380278
       0.7442294
       0.7517555
       0.7608236
       0.7713425
       0.7838350
       0.7988304
       0.8168360
       0.8427146
       0.8769666
       0.8785037
       0.7021005
       0.7007992
       0.7081787
       0.7134325
       0.7190590
       0.7247157
       0.7304696
       0.7364332
       0.7427837
       0.7499030
       0.7581102
       0.7670569
       0.7769502
       0.7881544
       0.8010148
       0.8159290
       0.8363010
       0.8620374
       0.8938519
       0.9321832
       0.9335127
       0.7085403
       0.7073271
       0.7163831
       0.7233416
       0.7304906
       0.7378077
       0.7455165
       0.7541216
       0.7633012
       0.7728304
       0.7828877
       0.7937140
       0.8055203
       0.8187500
       0.8363650
       0.8573016
       0.8822030
       0.9112610
       0.9468943
       0.9859260
       0.9871495
       0.7170120
       0.7159972
       0.7266728
       0.7355298
       0.7448726
       0.7552352
       0.7660063
       0.7768621
       0.7878896
       0.7992484
       0.8110230
       0.8243838
       0.8407013
       0.8589129
       0.8796212
       0.9031211
       0.9297588
       0.9621447
       0.9932209
       1.0000000
       1.0000000
       0.7276154
       0.7269382
       0.7396935
       0.7517653
       0.7647323
       0.7776743
       0.7905303
       0.8033362
       0.8161354
       0.8310623
       0.8473466
       0.8646077
       0.8832163
       0.9032179
       0.9246614
       0.9506021
       0.9778454
       0.9993235
       1.0000000
       1.0000000
       1.0000000
       0.7415067
       0.7411891
       0.7579092
       0.7735734
       0.7891151
       0.8043621
       0.8193260
       0.8366400
       0.8542487
       0.8721537
       0.8904631
       0.9089017
       0.9281580
       0.9498864
       0.9720922
       0.9923601
       1.0000000
       1.0000000
       1.0000000
       1.0000000
       1.0000000
       0.7617747
       0.7617191
       0.7816741
       0.8003721
       0.8184318
       0.8388672
       0.8593132
       0.8794846
       0.8989940
       0.9173965
       0.9370627
       0.9568084
       0.9756396
       0.9919656
       1.0000000
       1.0000000
       1.0000000
       1.0000000
       1.0000000
       1.0000000
       1.0000000
       0.7876084
       0.7880618
       0.8112636
       0.8351957
       0.8598793
       0.8839765
       0.9065101
       0.9274718
       0.9485169
       0.9677798
       0.9846378
       0.9970079
       1.0000000
       1.0000000
       1.0000000
       1.0000000
       1.0000000