# vtk DataFile Version 2.0
3D Unstructured Grid of Linear Triangles
ASCII
DATASET UNSTRUCTURED_GRID
FIELD FieldData  1
TIME 1 1 double
        1805.43531
POINTS     7056 float
          0.0000E+00      1.0000E+01      1.0000E+00
          5.0000E-01      1.0000E+01      9.9333E-01
          1.0000E+00      1.0000E+01      9.8333E-01
          1.5000E+00      1.0000E+01      9.7333E-01
          2.0000E+00      1.0000E+01      9.6333E-01
          2.5000E+00      1.0000E+01      9.5333E-01
          3.0000E+00      1.0000E+01      9.4333E-01
          3.5000E+00      1.0000E+01      9.3333E-01
          4.0000E+00      1.0000E+01      9.2333E-01
          4.5000E+00      1.0000E+01      9.1333E-01
          5.0000E+00      1.0000E+01      9.0333E-01
          5.5000E+00      1.0000E+01      8.9333E-01
          6.0000E+00      1.0000E+01      8.8333E-01
          6.5000E+00      1.0000E+01      8.7333E-01
          7.0000E+00      1.0000E+01      8.6333E-01
          7.5000E+00      1.0000E+01      8.5333E-01
          8.0000E+00      1.0000E+01      8.4333E-01
          8.5000E+00      1.0000E+01      8.3333E-01
          9.0000E+00      1.0000E+01      8.2333E-01
          9.5000E+00      1.0000E+01      8.1333E-01
          1.0000E+01      1.0000E+01      8.1000E-01
          0.0000E+00      9.5000E+00      9.8333E-01
          5.0000E-01      9.5000E+00      9.8250E-01
          1.0000E+00      9.5000E+00      9.7250E-01
          1.5000E+00      9.5000E+00      9.6250E-01
          2.0000E+00      9.5000E+00      9.5250E-01
          2.5000E+00      9.5000E+00      9.4250E-01
          3.0000E+00      9.5000E+00      9.3250E-01
          3.5000E+00      9.5000E+00      9.2250E-01
          4.0000E+00      9.5000E+00      9.1250E-01
          4.5000E+00      9.5000E+00      9.0250E-01
          5.0000E+00      9.5000E+00      8.9250E-01
          5.5000E+00      9.5000E+00      8.8250E-01
          6.0000E+00      9.5000E+00      8.7250E-01
          6.5000E+00      9.5000E+00      8.6250E-01
          7.0000E+00      9.5000E+00      8.5250E-01
          7.5000E+00      9.5000E+00      8.4250E-01
          8.0000E+00      9.5000E+00      8.3250E-01
          8.5000E+00      9.5000E+00      8.2250E-01
          9.0000E+00      9.5000E+00      8.1250E-01
          9.5000E+00      9.5000E+00      8.0250E-01
          1.0000E+01      9.5000E+00      8.0167E-01
          0.0000E+00      9.0000E+00      9.5833E-01
          5.0000E-01      9.0000E+00      9.5750E-01
          1.0000E+00      9.0000E+00      9.4750E-01
          1.5000E+00      9.0000E+00      9.3750E-01
          2.0000E+00      9.0000E+00      9.2750E-01
          2.5000E+00      9.0000E+00      9.1750E-01
          3.0000E+00      9.0000E+00      9.0750E-01
          3.5000E+00      9.0000E+00      8.9750E-01
          4.0000E+00      9.0000E+00      8.8750E-01
          4.5000E+00      9.0000E+00      8.7750E-01
          5.0000E+00      9.0000E+00      8.6750E-01
          5.5000E+00      9.0000E+00      8.5750E-01
          6.0000E+00      9.0000E+00      8.4750E-01
          6.5000E+00      9.0000E+00      8.3750E-01
          7.0000E+00      9.0000E+00      8.2750E-01
          7.5000E+00      9.0000E+00      8.1750E-01
          8.0000E+00      9.0000E+00      8.0750E-01
          8.5000E+00      9.0000E+00      7.9750E-01
          9.0000E+00      9.0000E+00      7.8750E-01
          9.5000E+00      9.0000E+00      7.7750E-01
          1.0000E+01      9.0000E+00      7.7667E-01
          0.0000E+00      8.5000E+00      9.3333E-01
          5.0000E-01      8.5000E+00      9.3250E-01
          1.0000E+00      8.5000E+00      9.2250E-01
          1.5000E+00      8.5000E+00      9.1250E-01
          2.0000E+00      8.5000E+00      9.0250E-01
          2.5000E+00      8.5000E+00      8.9250E-01
          3.0000E+00      8.5000E+00      8.8250E-01
          3.5000E+00      8.5000E+00      8.7250E-01
          4.0000E+00      8.5000E+00      8.6250E-01
          4.5000E+00      8.5000E+00      8.5250E-01
          5.0000E+00      8.5000E+00      8.4250E-01
          5.5000E+00      8.5000E+00      8.3250E-01
          6.0000E+00      8.5000E+00      8.2250E-01
          6.5000E+00      8.5000E+00      8.1250E-01
          7.0000E+00      8.5000E+00      8.0250E-01
          7.5000E+00      8.5000E+00      7.9250E-01
          8.0000E+00      8.5000E+00      7.8250E-01
          8.5000E+00      8.5000E+00      7.7250E-01
          9.0000E+00      8.5000E+00      7.6250E-01
          9.5000E+00      8.5000E+00      7.5250E-01
          1.0000E+01      8.5000E+00      7.5167E-01
          0.0000E+00      8.0000E+00      9.0833E-01
          5.0000E-01      8.0000E+00      9.0750E-01
          1.0000E+00      8.0000E+00      8.9750E-01
          1.5000E+00      8.0000E+00      8.8750E-01
          2.0000E+00      8.0000E+00      8.7750E-01
          2.5000E+00      8.0000E+00      8.6750E-01
          3.0000E+00      8.0000E+00      8.5750E-01
          3.5000E+00      8.0000E+00      8.4750E-01
          4.0000E+00      8.0000E+00      8.3750E-01
          4.5000E+00      8.0000E+00      8.2750E-01
          5.0000E+00      8.0000E+00      8.1750E-01
          5.5000E+00      8.0000E+00      8.0750E-01
          6.0000E+00      8.0000E+00      7.9750E-01
          6.5000E+00      8.0000E+00      7.8750E-01
          7.0000E+00      8.0000E+00      7.7750E-01
          7.5000E+00      8.0000E+00      7.6750E-01
          8.0000E+00      8.0000E+00      7.5750E-01
          8.5000E+00      8.0000E+00      7.4750E-01
          9.0000E+00      8.0000E+00      7.3750E-01
          9.5000E+00      8.0000E+00      7.2750E-01
          1.0000E+01      8.0000E+00      7.2667E-01
          0.0000E+00      7.5000E+00      8.8333E-01
          5.0000E-01      7.5000E+00      8.8250E-01
          1.0000E+00      7.5000E+00      8.7250E-01
          1.5000E+00      7.5000E+00      8.6250E-01
          2.0000E+00      7.5000E+00      8.5250E-01
          2.5000E+00      7.5000E+00      8.4250E-01
          3.0000E+00      7.5000E+00      8.3250E-01
          3.5000E+00      7.5000E+00      8.2250E-01
          4.0000E+00      7.5000E+00      8.1250E-01
          4.5000E+00      7.5000E+00      8.0250E-01
          5.0000E+00      7.5000E+00      7.9250E-01
          5.5000E+00      7.5000E+00      7.8250E-01
          6.0000E+00      7.5000E+00      7.7250E-01
          6.5000E+00      7.5000E+00      7.6250E-01
          7.0000E+00      7.5000E+00      7.5250E-01
          7.5000E+00      7.5000E+00      7.4250E-01
          8.0000E+00      7.5000E+00      7.3250E-01
          8.5000E+00      7.5000E+00      7.2250E-01
          9.0000E+00      7.5000E+00      7.1250E-01
          9.5000E+00      7.5000E+00      7.0250E-01
          1.0000E+01      7.5000E+00      7.0167E-01
          0.0000E+00      7.0000E+00      8.5833E-01
          5.0000E-01      7.0000E+00      8.5750E-01
          1.0000E+00      7.0000E+00      8.4750E-01
          1.5000E+00      7.0000E+00      8.3750E-01
          2.0000E+00      7.0000E+00      8.2750E-01
          2.5000E+00      7.0000E+00      8.1750E-01
          3.0000E+00      7.0000E+00      8.0750E-01
          3.5000E+00      7.0000E+00      7.9750E-01
          4.0000E+00      7.0000E+00      7.8750E-01
          4.5000E+00      7.0000E+00      7.7750E-01
          5.0000E+00      7.0000E+00      7.6750E-01
          5.5000E+00      7.0000E+00      7.5750E-01
          6.0000E+00      7.0000E+00      7.4750E-01
          6.5000E+00      7.0000E+00      7.3750E-01
          7.0000E+00      7.0000E+00      7.2750E-01
          7.5000E+00      7.0000E+00      7.1750E-01
          8.0000E+00      7.0000E+00      7.0750E-01
          8.5000E+00      7.0000E+00      6.9750E-01
          9.0000E+00      7.0000E+00      6.8750E-01
          9.5000E+00      7.0000E+00      6.7750E-01
          1.0000E+01      7.0000E+00      6.7667E-01
          0.0000E+00      6.5000E+00      8.3333E-01
          5.0000E-01      6.5000E+00      8.3250E-01
          1.0000E+00      6.5000E+00      8.2250E-01
          1.5000E+00      6.5000E+00      8.1250E-01
          2.0000E+00      6.5000E+00      8.0250E-01
          2.5000E+00      6.5000E+00      7.9250E-01
          3.0000E+00      6.5000E+00      7.8250E-01
          3.5000E+00      6.5000E+00      7.7250E-01
          4.0000E+00      6.5000E+00      7.6250E-01
          4.5000E+00      6.5000E+00      7.5250E-01
          5.0000E+00      6.5000E+00      7.4250E-01
          5.5000E+00      6.5000E+00      7.3250E-01
          6.0000E+00      6.5000E+00      7.2250E-01
          6.5000E+00      6.5000E+00      7.1250E-01
          7.0000E+00      6.5000E+00      7.0250E-01
          7.5000E+00      6.5000E+00      6.9250E-01
          8.0000E+00      6.5000E+00      6.8250E-01
          8.5000E+00      6.5000E+00      6.7250E-01
          9.0000E+00      6.5000E+00      6.6250E-01
          9.5000E+00      6.5000E+00      6.5250E-01
          1.0000E+01      6.5000E+00      6.5167E-01
          0.0000E+00      6.0000E+00      8.0833E-01
          5.0000E-01      6.0000E+00      8.0750E-01
          1.0000E+00      6.0000E+00      7.9750E-01
          1.5000E+00      6.0000E+00      7.8750E-01
          2.0000E+00      6.0000E+00      7.7750E-01
          2.5000E+00      6.0000E+00      7.6750E-01
          3.0000E+00      6.0000E+00      7.5750E-01
          3.5000E+00      6.0000E+00      7.4750E-01
          4.0000E+00      6.0000E+00      7.3750E-01
          4.5000E+00      6.0000E+00      7.2750E-01
          5.0000E+00      6.0000E+00      7.1750E-01
          5.5000E+00      6.0000E+00      7.0750E-01
          6.0000E+00      6.0000E+00      6.9750E-01
          6.5000E+00      6.0000E+00      6.8750E-01
          7.0000E+00      6.0000E+00      6.7750E-01
          7.5000E+00      6.0000E+00      6.6750E-01
          8.0000E+00      6.0000E+00      6.5750E-01
[...]
POINT_DATA     7056
SCALARS saturation float
LOOKUP_TABLE default
       0.6880834
       0.6898064
       0.6906678
       0.6912131
       0.6917229
       0.6921971
       0.6926072
       0.6930071
       0.6933981
       0.6937836
       0.6941814
       0.6946273
       0.6951379
       0.6957481
       0.6965229
       0.6975379
       0.6989304
       0.7008887
       0.7035419
       0.7100982
       0.7123764
       0.6914428
       0.6918228
       0.6939277
       0.6943813
       0.6949773
       0.6955294
       0.6960495
       0.6965472
       0.6970510
       0.6975557
       0.6981019
       0.6987073
       0.6994108
       0.7002608
       0.7013275
       0.7027086
       0.7045788
       0.7072341
       0.7110898
       0.7193462
       0.7195465
       0.6948336
       0.6956435
       0.6989268
       0.6999874
       0.7012374
       0.7023808
       0.7034591
       0.7044942
       0.7055087
       0.7065386
       0.7076205
       0.7088071
       0.7101676
       0.7118050
       0.7138641
       0.7165778
       0.7203073
       0.7255812
       0.7327381
       0.7444284
       0.7452148
       0.6981720
       0.6984404
       0.7026613
       0.7045180
       0.7064925
       0.7083204
       0.7100607
       0.7117530
       0.7134483
       0.7152051
       0.7170992
       0.7192257
       0.7217162
       0.7247371
       0.7284452
       0.7330239
       0.7388279
       0.7463774
       0.7563681
       0.7725983
       0.7735154
       0.7020412
       0.7020489
       0.7073147
       0.7100730
       0.7128992
       0.7156166
       0.7182903
       0.7209766
       0.7237327
       0.7266164
       0.7296560
       0.7329235
       0.7365609
       0.7407645
       0.7457866
       0.7519613
       0.7598168
       0.7709445
       0.7870358
       0.8093970
       0.8102943
       0.7064224
       0.7062546
       0.7125850
       0.7165114
       0.7205584
       0.7245770
       0.7285499
       0.7324024
       0.7361696
       0.7399585
       0.7438991
       0.7481536
       0.7529189
       0.7584700
       0.7653727
       0.7749606
       0.7871973
       0.8025881
       0.8221495
       0.8485996
       0.8493944
       0.7113574
       0.7111268
       0.7188081
       0.7243326
       0.7299139
       0.7351668
       0.7401291
       0.7449087
       0.7496371
       0.7544594
       0.7595621
       0.7653198
       0.7724992
       0.7811202
       0.7911374
       0.8031231
       0.8176971
       0.8352104
       0.8606364
       0.8948793
       0.8959177
       0.7171977
       0.7169764
       0.7264094
       0.7335428
       0.7402708
       0.7465925
       0.7526625
       0.7586521
       0.7648429
       0.7718693
       0.7796603
       0.7879182
       0.7968912
       0.8069413
       0.8185446
       0.8320324
       0.8498205
       0.8736819
       0.9036394
       0.9398026
       0.9401217
       0.7244424
       0.7242300
       0.7351687
       0.7435964
       0.7515878
       0.7593175
       0.7672439
       0.7760693
       0.7849615
       0.7938114
       0.8027596
       0.8121347
       0.8222924
       0.8333919
       0.8474120
       0.8653208
       0.8871146
       0.9134638
       0.9470899
       0.9794975
       0.9789301
       0.7328840
       0.7326927
       0.7449065
       0.7548773
       0.7647599
       0.7756930
       0.7866264
       0.7970698
       0.8070862
       0.8169900
       0.8269574
       0.8371661
       0.8499656
       0.8646655
       0.8814897
       0.9010875
       0.9234108
       0.9534317
       0.9889536
       1.0000000
       1.0000000
       0.7423789
       0.7423768
       0.7561695
       0.7687813
       0.7826194
       0.7957881
       0.8080635
       0.8196698
       0.8306877
       0.8418408
       0.8548292
       0.8683825
       0.8828367
       0.8985731
       0.9156546
       0.9358455
       0.9587497
       0.9814708
       1.0000000
       1.0000000
       1.0000000
       0.7536240
       0.7539272
       0.7707950
       0.7876444
       0.8035050
       0.8181376
       0.8315826
       0.8450265
       0.8594170
       0.8735842
       0.8877147
       0.9019702
       0.9164113
       0.9326314
       0.9504912
       0.9702666
       0.9873746
       1.0000000
       1.0000000
       1.0000000
       1.0000000
       0.7687244
       0.7692575
       0.7905693
       0.8097714
       0.8273537
       0.8437964
       0.8611465
       0.8776545
       0.8932424
       0.9079371
       0.9217738
       0.9366537
       0.9517787
       0.9681696
       0.9821980
       1.0000000
       1.0000000
       1.0000000
       1.0000000
       1.0000000
       1.0000000
       0.7902629
       0.7907981
       0.8146290
       0.8356356
       0.8572062
       0.8777954
       0.8968314
       0.9138894
       0.9293246
       0.9444349
       0.9592800
       0.9723780
       0.9839989
       1.0000000
       1.0000000
       1.0000000
       1.0000000
       1.0000000
       1.0000000
       1.0000000
       1.0000000
       0.8165553
       0.8173098
       0.8439671
       0.8707789
       0.8955934
       0.9167245
       0.9361392
       0.9546011
       0.9686346
       0.9797797
       0.9926069
       1.0000000
       1.0000000
       1.0000000
       1.0000000
       1.0000000
       1.0000000
       1.0000000
       1.0000000
       1.0000000
       1.0000000
       0.8505865
       0.8511966
       0.8848284
       0.9140765
       0.9401421
       0.9611577
       0.9773122
       0.9961652
       1.0000000
       1.0000000
       1.0000000
       1.0000000
       1.0000000
       1.0000000
       1.0000000
       1.0000000
       1.0000000
       1.0000000
       1.0000000
       1.0000000
       1.0000000
       0.8975812
       0.8982229
       0.9362402
       0.9639710
       0.9898088
       1.0000000
       1.0000000
       1.0000000
       1.0000000
       1.0000000
       1.0000000
       1.0000000
       1.0000000
       1.0000000
       1.0000000
       1.0000000
       1.0000000
       1.0000000
       1.0000000
       1.0000000
       1.0000000
       0.9544507
       0.9558049
       1.0000000
       1.0000000
       1.0000000
       1.0000000
       1.0000000
       1.0000000
       1.0000000
       1.0000000
       1.0000000
       1.0000000
       1.0000000
       1.0000000
       1.0000000
       1.0000000
       1.0000000
       1.0000000
       1.0000000
       1.0000000
       1.0000000
       1.0000000
       1.0000000
       1.0000000
       1.0000000
       1.0000000
       1.0000000
       1.0000000
       1.0000000
       1.0000000
       1.0000000
       1.0000000
       1.0000000
       1.0000000
       1.0000000
       1.0000000
       1.0000000
       1.0000000
       1.0000000
       1.0000000
       1.0000000
       1.0000000
       1.0000000
       1.0000000
       1.0000000
       1.0000000
       1.0000000
       1.0000000
       1.0000000
       1.0000000
       1.0000000
       1.0000000
       1.0000000
       1.0000000
       1.0000000
       1.0000000
       1.0000000
       1.0000000
       1.0000000
       1.0000000
       1.0000000
       1.0000000
       1.0000000
       1.0000000
       1.0000000
       1.0000000
       1.0000000
       1.0000000
       1.0000000
       1.0000000
       1.0000000
       1.0000000
       1.0000000
       1.0000000
       1.0000000
       1.0000000
       1.0000000
       1.0000000
       1.0000000
       1.0000000
       1.0000000
       1.0000000
       1.0000000
       1.0000000
       0.6982165
       0.6999194
       0.7008488
       0.7014366
       0.7019865
       0.7024979
       0.7029407
       0.7033724
       0.7037947
       0.7042114
       0.7046415
       0.7051238
       0.7056763
       0.7063372
       0.7071770
       0.7082791
       0.7097937
       0.7119259
       0.7148179
       0.7219133
       0.7240787
       0.7016683
       0.7017826
       0.7040478
       0.7045349
       0.7051761
       0.7057708
       0.7063319
       0.7068694
       0.7074141
       0.7079607
       0.7085529
       0.7092102
       0.7099754
       0.7109017
       0.7120664
       0.7135758
       0.7156166
       0.7185082
       0.7227022
       0.7316303
       0.7315584
       0.7053139
       0.7058811
       0.7094144
       0.7105567
       0.7119047
       0.7131405
       0.7143085
       0.7154323
       0.7165362
       0.7176584
       0.7188377
       0.7201309
       0.7216133
       0.7233963
       0.7256370
       0.7285878
       0.7326441
       0.7384124
       0.7462903
       0.7591114
       0.7596994
       0.7089096
       0.7088915
       0.7134394
       0.7154480
       0.7175883
       0.7195737
       0.7214646
       0.7233034
       0.7251456
       0.7270546
       0.7291130
       0.7314249
       0.7341363
       0.7374374
       0.7415172
       0.7465629
       0.7529612
       0.7612922
       0.7723244
       0.7900663
       0.7907950
       0.7130889
       0.7127898
       0.7184801
       0.7214732
       0.7245368
       0.7274830
       0.7303833
       0.7333004
       0.7363011
       0.7394570
       0.7428051
       0.7464098
       0.7504238
       0.7550643
       0.7606125
       0.7674367
       0.7761046
       0.7883012
       0.8061464
       0.8309210
       0.8317325
       0.7178403
       0.7173559
       0.7242023
       0.7284556
       0.7328411
       0.7372098
       0.7415600
       0.7458049
       0.7499609
       0.7541445
       0.7584979
       0.7631996
       0.7684677
       0.7745975
       0.7821834
       0.7927357
       0.8063179
       0.8234198
       0.8451722
       0.8743321
       0.8750610
       0.7231973
       0.7226489
       0.7309553
       0.7369523
       0.7430632
       0.7488480
       0.7543212
       0.7595970
       0.7648187
       0.7701468
       0.7757782
       0.7821034
       0.7899809
       0.7995529
       0.8106875
       0.8240142
       0.8402209
       0.8596708
       0.8876468
       0.9246612
       0.9256950
       0.7295375
       0.7290043
       0.7392402
       0.7470769
       0.7544876
       0.7614591
       0.7681571
       0.7747645
       0.7815672
       0.7892634
       0.7979108
       0.8070926
       0.8170763
       0.8282598
       0.8411645
       0.8561518
       0.8757577
       0.9018996
       0.9339605
       0.9701780
       0.9704474
       0.7374319
       0.7369233
       0.7488970
       0.7581785
       0.7669876
       0.7755063
       0.7841963
       0.7939193
       0.8037948
       0.8136400
       0.8236011
       0.8340311
       0.8453292
       0.8576586
       0.8731025
       0.8927799
       0.9164157
       0.9441860
       0.9768702
       0.9998028
       0.9996439
       0.7467139
       0.7462590
       0.7596583
       0.7706440
       0.7815040
       0.7935219
       0.8056536
       0.8172698
       0.8284145
       0.8394290
       0.8505122
       0.8618273
       0.8759172
       0.8920678
       0.9103658
       0.9312838
       0.9542487
       0.9824174
       1.0000000
       1.0000000
       1.0000000
       0.7571740
       0.7569557
       0.7721102
       0.7859311
       0.8012351
       0.8158622
       0.8295129
       0.8424158
       0.8546579
       0.8669464
       0.8812707
       0.8961296
       0.9118214
       0.9286391
       0.9464318
       0.9664535
       0.9868560
       1.0000000
       1.0000000
       1.0000000
       1.0000000
       0.7695676
       0.7697229
       0.7881968
       0.8068549
       0.8244692
       0.8407287
       0.8556620
       0.8704765
       0.8863186
       0.9017989
       0.9170682
       0.9322234
       0.9472107
       0.9633725
       0.9799314
       0.9952695
       1.0000000
       1.0000000
       1.0000000
       1.0000000
       1.0000000
       0.7861699
       0.7865873
       0.8101535
       0.8314698
       0.8509906
       0.8691378
       0.8882303
       0.9062277
       0.9229844
       0.9384671
       0.9526309
       0.9672385
       0.9810546
       0.9939019
       1.0000000
       1.0000000
       1.0000000
       1.0000000
       1.0000000
       1.0000000
       1.0000000
       0.8100359
       0.8104996
       0.8369046
       0.8602012
       0.8839360
       0.9063976
       0.9268099
       0.9446301
       0.9601475
       0.9745048
       0.9872950
       0.9965630
       1.0000000
       1.0000000
       1.0000000
       1.0000000
       1.0000000
       1.0000000
       1.0000000
       1.0000000
       1.0000000
       0.8392023
       0.8399560
       0.8694046
       0.8988067
       0.9255101
       0.9475454
       0.9667616
       0.9834612
       0.9942127
       0.9998715
       1.0000000
       1.0000000
       1.0000000
       1.0000000
       1.0000000
       1.0000000
       1.0000000
       1.0000000
       1.0000000
       1.0000000
       1.0000000
       0.8768118
       0.8774327
       0.9140471
       0.9448534
       0.9705544
       0.9887880
       0.9990602
       1.0000000
       1.0000000
       1.0000000
       1.0000000
       1.0000000
       1.0000000
       1.0000000
       1.0000000
       1.0000000
       1.0000000
       1.0000000
       1.0000000
       1.0000000
       1.0000000
       0.9277113
       0.9284008
       0.9669020
       0.9909232
       1.0000000
       1.0000000
       1.0000000
       1.0000000
       1.0000000
       1.0000000
       1.0000000
       1.0000000
       1.0000000
       1.0000000
       1.0000000
       1.0000000
       1.0000000
       1.0000000
       1.0000000
       1.0000000
       1.0000000
       0.9833750
       0.9844951
       1.0000000
       1.0000000
       1.0000000
       1.0000000
       1.0000000
       1.0000000
       1.0000000
       1.0000000
       1.0000000
       1.0000000
       1.0000000
       1.0000000
       1.0000000
       1.0000000
       1.0000000
       1.0000000
       1.0000000
       1.0000000
       1.0000000
       1.0000000
       1.0000000
       1.0000000
       1.0000000
       1.0000000
       1.0000000
       1.0000000
       1.0000000
       1.0000000
       1.0000000
       1.0000000
       1.0000000
       1.0000000
       1.0000000
       1.0000000
       1.0000000
       1.0000000
       1.0000000
       1.0000000
       1.0000000
       1.0000000
       1.0000000
       1.0000000
       1.0000000
       1.0000000
       1.0000000
       1.0000000
       1.0000000
       1.0000000
       1.0000000
       1.0000000
       1.0000000
       1.0000000
       1.0000000
       1.0000000
       1.0000000
       1.0000000
       1.0000000
       1.0000000
       1.0000000
       1.0000000
       1.0000000
       1.0000000
       1.0000000
       1.0000000
       1.0000000
       1.0000000
       1.0000000
       1.0000000
       1.0000000
       1.0000000
       1.0000000
       1.0000000
       1.0000000
       1.0000000
       1.0000000
       1.0000000
       1.0000000
       1.0000000
       1.0000000
       1.0000000
       1.0000000
       1.0000000
       0.7162372
       0.7177632
       0.7188663
       0.7195580
       0.7202061
       0.7208077
       0.7213321
       0.7218438
       0.7223444
       0.7228413
       0.7233561
       0.7239334
       0.7245970
       0.7253947
       0.7264139
       0.7277659
       0.7296471
       0.7323110
       0.7359384
       0.7442570
       0.7458595
       0.7197670
       0.7190386
       0.7216475
       0.7222075
       0.7229460
       0.7236378
       0.7242949
       0.7249291
       0.7255759
       0.7262306
       0.7269446
       0.7277434
       0.7286816
       0.7298302
       0.7312912
       0.7331964
       0.7357458
       0.7393034
       0.7444028
       0.7547542
       0.7538629
       0.7239700
       0.7237179
       0.7277689
       0.7290921
       0.7306548
       0.7321073
       0.7334970
       0.7348524
       0.7362019
       0.7375860
       0.7390440
       0.7406392
       0.7424611
       0.7446405
       0.7473611
       0.7509149
       0.7557794
       0.7628790
       0.7729243
       0.7887539
       0.7887088
       0.7281155
       0.7271961
       0.7324306
       0.7348104
       0.7373633
       0.7397633
       0.7420501
       0.7442705
       0.7464911
       0.7487868
       0.7512566
       0.7540279
       0.7572902
       0.7613313
       0.7665222
       0.7729970
       0.7811718
       0.7918010
       0.8058137
       0.8267715
       0.8269432
       0.7330118
       0.7317810
       0.7384237
       0.7420264
       0.7456672
       0.7491621
       0.7525990
       0.7560651
       0.7596691
       0.7635592
       0.7678464
       0.7725030
       0.7776765
       0.7836411
       0.7907666
       0.7995013
       0.8104255
       0.8250588
       0.8476697
       0.8784543
       0.8791719
       0.7387288
       0.7373061
       0.7453100
       0.7503345
       0.7554853
       0.7606834
       0.7660560
       0.7715027
       0.7768579
       0.7822532
       0.7878614
       0.7938994
       0.8006462
       0.8084113
       0.8177200
       0.8305966
       0.8478704
       0.8694999
       0.8967248
       0.9310928
       0.9317736
       0.7451793
       0.7437131
       0.7533494
       0.7604410
       0.7679882
       0.7753766
       0.7823971
       0.7891620
       0.7958375
       0.8026337
       0.8097433
       0.8174906
       0.8269373
       0.8391769
       0.8533925
       0.8702742
       0.8905968
       0.9144978
       0.9466886
       0.9836467
       0.9845246
       0.7527403
       0.7513520
       0.7633627
       0.7732477
       0.7826847
       0.7915677
       0.8000739
       0.8084049
       0.8167579
       0.8259113
       0.8369538
       0.8487220
       0.8614688
       0.8756439
       0.8918038
       0.9102819
       0.9332086
       0.9620984
       0.9911483
       1.0000000
       1.0000000
       0.7623094
       0.7610429
       0.7757824
       0.7875657
       0.7987101
       0.8093922
       0.8199084
       0.8318279
       0.8444404
       0.8570348
       0.8697320
       0.8828812
       0.8969818
       0.9121246
       0.9301462
       0.9523892
       0.9764664
       0.9975015
       1.0000000
       1.0000000
       1.0000000
       0.7742410
       0.7731308
       0.7896962
       0.8035206
       0.8168738
       0.8314576
       0.8468688
       0.8616899
       0.8758154
       0.8896242
       0.9033828
       0.9170958
       0.9334243
       0.9516472
       0.9707094
       0.9891700
       1.0000000
       1.0000000
       1.0000000
       1.0000000
       1.0000000
       0.7877007
       0.7869465
       0.8056480
       0.8223175
       0.8414551
       0.8600133
       0.8772648
       0.8933838
       0.9084812
       0.9229047
       0.9395682
       0.9560503
       0.9721438
       0.9871365
       0.9985458
       1.0000000
       1.0000000
       1.0000000
       1.0000000
       1.0000000
       1.0000000
       0.8034394
       0.8032976
       0.8253864
       0.8488519
       0.8710616
       0.8913740
       0.9097601
       0.9271204
       0.9453010
       0.9620490
       0.9771198
       0.9899112
       0.9988695
       1.0000000
       1.0000000
       1.0000000
       1.0000000
       1.0000000
       1.0000000
       1.0000000
       1.0000000
       0.8237758
       0.8240300
       0.8533542
       0.8800594
       0.9041681
       0.9256381
       0.9474921
       0.9666290
       0.9824394
       0.9942458
       1.0000000
       1.0000000
       1.0000000
       1.0000000
       1.0000000
       1.0000000
       1.0000000
       1.0000000
       1.0000000
       1.0000000
       1.0000000
       0.8540364
       0.8544272
       0.8870446
       0.9154825
       0.9428192
       0.9668603
       0.9856930
       0.9977390
       1.0000000
       1.0000000
       1.0000000
       1.0000000
       1.0000000
       1.0000000
       1.0000000
       1.0000000
       1.0000000