# vtk DataFile Version 2.0
3D Unstructured Grid of Linear Triangles
ASCII
DATASET UNSTRUCTURED_GRID
FIELD FieldData  1
TIME 1 1 double
        3603.69648
POINTS     7056 float
      0.00000000E+00  1.00000000E+01  1.00000000E+00
      5.00000000E-01  1.00000000E+01  9.93333333E-01
      1.00000000E+00  1.00000000E+01  9.83333333E-01
      1.50000000E+00  1.00000000E+01  9.73333333E-01
      2.00000000E+00  1.00000000E+01  9.63333333E-01
      2.50000000E+00  1.00000000E+01  9.53333333E-01
      3.00000000E+00  1.00000000E+01  9.43333333E-01
      3.50000000E+00  1.00000000E+01  9.33333333E-01
      4.00000000E+00  1.00000000E+01  9.23333333E-01
      4.50000000E+00  1.00000000E+01  9.13333333E-01
      5.00000000E+00  1.00000000E+01  9.03333333E-01
      5.50000000E+00  1.00000000E+01  8.93333333E-01
      6.00000000E+00  1.00000000E+01  8.83333333E-01
      6.50000000E+00  1.00000000E+01  8.73333333E-01
      7.00000000E+00  1.00000000E+01  8.63333333E-01
      7.50000000E+00  1.00000000E+01  8.53333333E-01
      8.00000000E+00  1.00000000E+01  8.43333333E-01
      8.50000000E+00  1.00000000E+01  8.33333333E-01
      9.00000000E+00  1.00000000E+01  8.23333333E-01
      9.50000000E+00  1.00000000E+01  8.13333333E-01
      1.00000000E+01  1.00000000E+01  8.10000000E-01
      0.00000000E+00  9.50000000E+00  9.83333333E-01
      5.00000000E-01  9.50000000E+00  9.82500000E-01
      1.00000000E+00  9.50000000E+00  9.72500000E-01
      1.50000000E+00  9.50000000E+00  9.62500000E-01
      2.00000000E+00  9.50000000E+00  9.52500000E-01
      2.50000000E+00  9.50000000E+00  9.42500000E-01
      3.00000000E+00  9.50000000E+00  9.32500000E-01
      3.50000000E+00  9.50000000E+00  9.22500000E-01
      4.00000000E+00  9.50000000E+00  9.12500000E-01
      4.50000000E+00  9.50000000E+00  9.02500000E-01
      5.00000000E+00  9.50000000E+00  8.92500000E-01
      5.50000000E+00  9.50000000E+00  8.82500000E-01
      6.00000000E+00  9.50000000E+00  8.72500000E-01
      6.50000000E+00  9.50000000E+00  8.62500000E-01
      7.00000000E+00  9.50000000E+00  8.52500000E-01
      7.50000000E+00  9.50000000E+00  8.42500000E-01
      8.00000000E+00  9.50000000E+00  8.32500000E-01
      8.50000000E+00  9.50000000E+00  8.22500000E-01
      9.00000000E+00  9.50000000E+00  8.12500000E-01
      9.50000000E+00  9.50000000E+00  8.02500000E-01
      1.00000000E+01  9.50000000E+00  8.01666667E-01
      0.00000000E+00  9.00000000E+00  9.58333333E-01
      5.00000000E-01  9.00000000E+00  9.57500000E-01
      1.00000000E+00  9.00000000E+00  9.47500000E-01
      1.50000000E+00  9.00000000E+00  9.37500000E-01
      2.00000000E+00  9.00000000E+00  9.27500000E-01
      2.50000000E+00  9.00000000E+00  9.17500000E-01
      3.00000000E+00  9.00000000E+00  9.07500000E-01
      3.50000000E+00  9.00000000E+00  8.97500000E-01
      4.00000000E+00  9.00000000E+00  8.87500000E-01
      4.50000000E+00  9.00000000E+00  8.77500000E-01
      5.00000000E+00  9.00000000E+00  8.67500000E-01
      5.50000000E+00  9.00000000E+00  8.57500000E-01
      6.00000000E+00  9.00000000E+00  8.47500000E-01
      6.50000000E+00  9.00000000E+00  8.37500000E-01
      7.00000000E+00  9.00000000E+00  8.27500000E-01
      7.50000000E+00  9.00000000E+00  8.17500000E-01
      8.00000000E+00  9.00000000E+00  8.07500000E-01
      8.50000000E+00  9.00000000E+00  7.97500000E-01
      9.00000000E+00  9.00000000E+00  7.87500000E-01
      9.50000000E+00  9.00000000E+00  7.77500000E-01
      1.00000000E+01  9.00000000E+00  7.76666667E-01
      0.00000000E+00  8.50000000E+00  9.33333333E-01
      5.00000000E-01  8.50000000E+00  9.32500000E-01
      1.00000000E+00  8.50000000E+00  9.22500000E-01
      1.50000000E+00  8.50000000E+00  9.12500000E-01
      2.00000000E+00  8.50000000E+00  9.02500000E-01
      2.50000000E+00  8.50000000E+00  8.92500000E-01
      3.00000000E+00  8.50000000E+00  8.82500000E-01
      3.50000000E+00  8.50000000E+00  8.72500000E-01
      4.00000000E+00  8.50000000E+00  8.62500000E-01
      4.50000000E+00  8.50000000E+00  8.52500000E-01
      5.00000000E+00  8.50000000E+00  8.42500000E-01
      5.50000000E+00  8.50000000E+00  8.32500000E-01
      6.00000000E+00  8.50000000E+00  8.22500000E-01
      6.50000000E+00  8.50000000E+00  8.12500000E-01
      7.00000000E+00  8.50000000E+00  8.02500000E-01
      7.50000000E+00  8.50000000E+00  7.92500000E-01
      8.00000000E+00  8.50000000E+00  7.82500000E-01
      8.50000000E+00  8.50000000E+00  7.72500000E-01
      9.00000000E+00  8.50000000E+00  7.62500000E-01
      9.50000000E+00  8.50000000E+00  7.52500000E-01
      1.00000000E+01  8.50000000E+00  7.51666667E-01
      0.00000000E+00  8.00000000E+00  9.08333333E-01
      5.00000000E-01  8.00000000E+00  9.07500000E-01
      1.00000000E+00  8.00000000E+00  8.97500000E-01
      1.50000000E+00  8.00000000E+00  8.87500000E-01
      2.00000000E+00  8.00000000E+00  8.77500000E-01
      2.50000000E+00  8.00000000E+00  8.67500000E-01
      3.00000000E+00  8.00000000E+00  8.57500000E-01
      3.50000000E+00  8.00000000E+00  8.47500000E-01
      4.00000000E+00  8.00000000E+00  8.37500000E-01
      4.50000000E+00  8.00000000E+00  8.27500000E-01
      5.00000000E+00  8.00000000E+00  8.17500000E-01
      5.50000000E+00  8.00000000E+00  8.07500000E-01
      6.00000000E+00  8.00000000E+00  7.97500000E-01
      6.50000000E+00  8.00000000E+00  7.87500000E-01
      7.00000000E+00  8.00000000E+00  7.77500000E-01
      7.50000000E+00  8.00000000E+00  7.67500000E-01
      8.00000000E+00  8.00000000E+00  7.57500000E-01
      8.50000000E+00  8.00000000E+00  7.47500000E-01
      9.00000000E+00  8.00000000E+00  7.37500000E-01
      9.50000000E+00  8.00000000E+00  7.27500000E-01
      1.00000000E+01  8.00000000E+00  7.26666667E-01
      0.00000000E+00  7.50000000E+00  8.83333333E-01
      5.00000000E-01  7.50000000E+00  8.82500000E-01
      1.00000000E+00  7.50000000E+00  8.72500000E-01
      1.50000000E+00  7.50000000E+00  8.62500000E-01
      2.00000000E+00  7.50000000E+00  8.52500000E-01
      2.50000000E+00  7.50000000E+00  8.42500000E-01
      3.00000000E+00  7.50000000E+00  8.32500000E-01
      3.50000000E+00  7.50000000E+00  8.22500000E-01
      4.00000000E+00  7.50000000E+00  8.12500000E-01
      4.50000000E+00  7.50000000E+00  8.02500000E-01
      5.00000000E+00  7.50000000E+00  7.92500000E-01
      5.50000000E+00  7.50000000E+00  7.82500000E-01
      6.00000000E+00  7.50000000E+00  7.72500000E-01
      6.50000000E+00  7.50000000E+00  7.62500000E-01
      7.00000000E+00  7.50000000E+00  7.52500000E-01
      7.50000000E+00  7.50000000E+00  7.42500000E-01
      8.00000000E+00  7.50000000E+00  7.32500000E-01
      8.50000000E+00  7.50000000E+00  7.22500000E-01
      9.00000000E+00  7.50000000E+00  7.12500000E-01
      9.50000000E+00  7.50000000E+00  7.02500000E-01
      1.00000000E+01  7.50000000E+00  7.01666667E-01
      0.00000000E+00  7.00000000E+00  8.58333333E-01
      5.00000000E-01  7.00000000E+00  8.57500000E-01
      1.00000000E+00  7.00000000E+00  8.47500000E-01
      1.50000000E+00  7.00000000E+00  8.37500000E-01
      2.00000000E+00  7.00000000E+00  8.27500000E-01
      2.50000000E+00  7.00000000E+00  8.17500000E-01
      3.00000000E+00  7.00000000E+00  8.07500000E-01
      3.50000000E+00  7.00000000E+00  7.97500000E-01
      4.00000000E+00  7.00000000E+00  7.87500000E-01
      4.50000000E+00  7.00000000E+00  7.77500000E-01
      5.00000000E+00  7.00000000E+00  7.67500000E-01
      5.50000000E+00  7.00000000E+00  7.57500000E-01
      6.00000000E+00  7.00000000E+00  7.47500000E-01
      6.50000000E+00  7.00000000E+00  7.37500000E-01
      7.00000000E+00  7.00000000E+00  7.27500000E-01
      7.50000000E+00  7.00000000E+00  7.17500000E-01
      8.00000000E+00  7.00000000E+00  7.07500000E-01
      8.50000000E+00  7.00000000E+00  6.97500000E-01
      9.00000000E+00  7.00000000E+00  6.87500000E-01
      9.50000000E+00  7.00000000E+00  6.77500000E-01
      1.00000000E+01  7.00000000E+00  6.76666667E-01
      0.00000000E+00  6.50000000E+00  8.33333333E-01
      5.00000000E-01  6.50000000E+00  8.32500000E-01
      1.00000000E+00  6.50000000E+00  8.22500000E-01
      1.50000000E+00  6.50000000E+00  8.12500000E-01
      2.00000000E+00  6.50000000E+00  8.02500000E-01
      2.50000000E+00  6.50000000E+00  7.92500000E-01
      3.00000000E+00  6.50000000E+00  7.82500000E-01
      3.50000000E+00  6.50000000E+00  7.72500000E-01
      4.00000000E+00  6.50000000E+00  7.62500000E-01
      4.50000000E+00  6.50000000E+00  7.52500000E-01
      5.00000000E+00  6.50000000E+00  7.42500000E-01
      5.50000000E+00  6.50000000E+00  7.32500000E-01
      6.00000000E+00  6.50000000E+00  7.22500000E-01
      6.50000000E+00  6.50000000E+00  7.12500000E-01
      7.00000000E+00  6.50000000E+00  7.02500000E-01
      7.50000000E+00  6.50000000E+00  6.92500000E-01
      8.00000000E+00  6.50000000E+00  6.82500000E-01
      8.50000000E+00  6.50000000E+00  6.72500000E-01
      9.00000000E+00  6.50000000E+00  6.62500000E-01
      9.50000000E+00  6.50000000E+00  6.52500000E-01
      1.00000000E+01  6.50000000E+00  6.51666667E-01
      0.00000000E+00  6.00000000E+00  8.08333333E-01
      5.00000000E-01  6.00000000E+00  8.07500000E-01
      1.00000000E+00  6.00000000E+00  7.97500000E-01
      1.50000000E+00  6.00000000E+00  7.87500000E-01
      2.00000000E+00  6.00000000E+00  7.77500000E-01
      2.50000000E+00  6.00000000E+00  7.67500000E-01
      3.00000000E+00  6.00000000E+00  7.57500000E-01
      3.50000000E+00  6.00000000E+00  7.47500000E-01
      4.00000000E+00  6.00000000E+00  7.37500000E-01
      4.50000000E+00  6.00000000E+00  7.27500000E-01
      5.00000000E+00  6.00000000E+00  7.17500000E-01
      5.50000000E+00  6.00000000E+00  7.07500000E-01
      6.00000000E+00  6.00000000E+00  6.97500000E-01
      6.50000000E+00  6.00000000E+00  6.87500000E-01
      7.00000000E+00  6.00000000E+00  6.77500000E-01
      7.50000000E+00  6.00000000E+00  6.67500000E-01
      8.00000000E+00  6.00000000E+00  6.57500000E-01
[...]
POINT_DATA     7056
SCALARS pressure float
LOOKUP_TABLE default
  -4.9313524758162579E-002
  -4.7922408908896499E-002
  -4.7070509939133351E-002
  -4.6499343988424799E-002
  -4.6039942278898842E-002
  -4.5663589827671373E-002
  -4.5348396285665664E-002
  -4.5078691657969336E-002
  -4.4841734284284611E-002
  -4.4623478665192798E-002
  -4.4413591010786818E-002
  -4.4198815383850634E-002
  -4.3966408757051857E-002
  -4.3699666485979588E-002
  -4.3378880653582037E-002
  -4.2975283745659183E-002
  -4.2444142483907009E-002
  -4.1705854751516301E-002
  -4.0618763153485740E-002
  -3.8283191398655887E-002
  -3.7117493230680344E-002
  -4.6312522128171094E-002
  -4.5741019691817410E-002
  -4.4327089059818046E-002
  -4.3635204051839252E-002
  -4.3106599915693856E-002
  -4.2693974660951303E-002
  -4.2357653732982781E-002
  -4.2073472295533487E-002
  -4.1822792342243204E-002
  -4.1591352579021044E-002
  -4.1366522959767268E-002
  -4.1133783916537457E-002
  -4.0879397235402730E-002
  -4.0585463931025099E-002
  -4.0228827930040699E-002
  -3.9775771414202375E-002
  -3.9171138452460987E-002
  -3.8314965201023760E-002
  -3.6996670243330025E-002
  -3.4134351211155239E-002
  -3.4131679818703659E-002
  -4.3013066988269844E-002
  -4.2425865940957423E-002
  -4.0510695289687267E-002
  -3.9567421572119461E-002
  -3.8849832110970220E-002
  -3.8280763953884099E-002
  -3.7810677420890462E-002
  -3.7407891036619442E-002
  -3.7049784244151542E-002
  -3.6715852681596779E-002
  -3.6387262088277882E-002
  -3.6043928891835976E-002
  -3.5662380140661400E-002
  -3.5212756119386478E-002
  -3.4641956281677641E-002
  -3.3871743297666082E-002
  -3.2713924048344015E-002
  -3.0986586890029463E-002
  -2.8504024804712182E-002
  -2.4397952316869250E-002
  -2.4476239336846783E-002
  -4.0606594562905260E-002
  -4.0227918696498409E-002
  -3.8010471798835661E-002
  -3.6798834532347370E-002
  -3.5849891041985785E-002
  -3.5067496295657273E-002
  -3.4387502778910055E-002
  -3.3769194832816020E-002
  -3.3179120073109129E-002
  -3.2587616549652851E-002
  -3.1988644924144431E-002
  -3.1377260405854680E-002
  -3.0718713648458129E-002
  -2.9969805897061497E-002
  -2.9075649133327042E-002
  -2.7960697565420935E-002
  -2.6511706671917011E-002
  -2.4530325560206154E-002
  -2.1689327994500553E-002
  -1.7371977601623838E-002
  -1.7595100907569095E-002
  -3.8644832351682423E-002
  -3.8364604226542198E-002
  -3.5832260517400231E-002
  -3.4254222966587998E-002
  -3.2868718654340413E-002
  -3.1620170871038931E-002
  -3.0599960465978848E-002
  -2.9746896282555682E-002
  -2.9002908603414812E-002
  -2.8323361988003056E-002
  -2.7669636300470202E-002
  -2.7003675212545725E-002
  -2.6284340687283764E-002
  -2.5463739856653452E-002
  -2.4480130943487756E-002
  -2.3237249589671757E-002
  -2.1583826827818245E-002
  -1.9335033771473862E-002
  -1.5644537911104730E-002
  -9.8844886472101677E-003
  -1.0057557266906101E-002
  -3.6944720922327846E-002
  -3.6709241032734936E-002
  -3.3737241392286135E-002
  -3.1485150279349075E-002
  -2.9738450115741361E-002
  -2.8396900310182858E-002
  -2.7320359319017388E-002
  -2.6417825791270683E-002
  -2.5627362355925935E-002
  -2.4901479223983176E-002
  -2.4198590370418039E-002
  -2.3477715847886427E-002
  -2.2693328643444546E-002
  -2.1781839918462671E-002
  -2.0664602208558650E-002
  -1.9250818992112229E-002
  -1.7199157626474223E-002
  -1.3869824232455953E-002
  -9.1409218786123372E-003
  -3.4249130280668469E-003
  -3.7447937962572864E-003
  -3.5371321962426948E-002
  -3.5156394513790337E-002
  -3.1453676398580752E-002
  -2.8950868130765705E-002
  -2.7136871126302961E-002
  -2.5742432259715235E-002
  -2.4612838256581084E-002
  -2.3656477559609417E-002
  -2.2810809240932040E-002
  -2.2026140272938904E-002
  -2.1252919489448262E-002
  -2.0441581987465610E-002
  -1.9549996161424742E-002
  -1.8512599278675199E-002
  -1.7017558891482411E-002
  -1.4931417579532568E-002
  -1.2255825672074202E-002
  -8.5488555077961239E-003
   1.1789836248686437E-006
   9.5767956818900820E-006
   7.7896889259513371E-006
  -3.3755644582384246E-002
  -3.3546706371891666E-002
  -2.9371017477300129E-002
  -2.6788289956384444E-002
  -2.4916964414300920E-002
  -2.3460282230142258E-002
  -2.2264235188930011E-002
  -2.1234558324889199E-002
  -2.0299876334660093E-002
  -1.9414220075269755E-002
  -1.8532346795257296E-002
  -1.7490919647402889E-002
  -1.6143882876023922E-002
  -1.4616890009657865E-002
  -1.2831040957131338E-002
  -1.0709716626102787E-002
  -8.1223156184138910E-003
  -4.8206158895140634E-003
   9.5672409494718616E-006
   2.2604100458703634E-005
   2.5846320384878969E-005
  -3.1925548770873079E-002
  -3.1765172042843591E-002
  -2.7511616132525427E-002
  -2.4865525664561901E-002
  -2.2924177206732736E-002
  -2.1384471892918370E-002
  -2.0082483209864298E-002
  -1.8929418638945008E-002
  -1.7831818667378641E-002
  -1.6500820196851885E-002
  -1.5185899130952484E-002
  -1.3848246233906706E-002
  -1.2436130561212759E-002
  -1.0889670332493041E-002
  -9.1198478490198045E-003
  -7.0714586541794026E-003
  -4.3889467410801637E-003
   3.1754654085107166E-006
   1.8386078793015538E-005
   3.3573795796884775E-005
   3.3704336880180938E-005
  -3.0167479687902416E-002
  -3.0077463184172024E-002
  -2.5783309151396542E-002
  -2.3060752615347437E-002
  -2.1016826210524288E-002
  -1.9340106266913883E-002
  -1.7853377808855233E-002
  -1.6147554711933462E-002
  -1.4590596420812669E-002
  -1.3162429636598236E-002
  -1.1810433893690173E-002
  -1.0472011762847842E-002
  -9.0602329567373609E-003
  -7.5030976835585121E-003
  -5.8800656930699724E-003
  -3.6060370804565874E-003
   2.4025927480271237E-006
   1.0804823515519790E-005
   2.8638642503254575E-005
   4.1954785142664667E-005
   4.0824590456803826E-005
  -2.8461707984067025E-002
  -2.8428914395386633E-002
  -2.4081070094476294E-002
  -2.1244146030887461E-002
  -1.9043040707369906E-002
  -1.6945325262500945E-002
  -1.4829616495766725E-002
  -1.3001670187407057E-002
  -1.1416418836720069E-002
  -9.9857790266955331E-003
  -8.6122284617208920E-003
  -7.2794699515394074E-003
  -5.9947942757210401E-003
  -4.2375726481603667E-003
  -2.5129141401226550E-003
   2.7753203349300996E-006
   9.3266969277123449E-006
   1.9662972216483330E-005
   3.6942560230316578E-005
   4.9621060130655085E-005
   4.8038035132049406E-005
  -2.6702673960434797E-002
  -2.6716026564082656E-002
  -2.2280289407162857E-002
  -1.9275979810566304E-002
  -1.6542173026529779E-002
  -1.3902850983276363E-002
  -1.1713164152890908E-002
  -9.8817398012337847E-003
  -8.2755869981313065E-003
  -6.8467667233210331E-003
  -5.4764585426870854E-003
  -4.0406027374682461E-003
  -2.6266386394329234E-003
   1.5977512635327195E-006
   5.0261710196297735E-006
   9.8667872100511025E-006
   1.8070238072971339E-005
   2.7488660108946022E-005
   4.4388659451510599E-005
   5.7400852799151865E-005
   5.5786388374822303E-005
  -2.4772157349120454E-002
  -2.4816000316656737E-002
  -2.0238365481492025E-002
  -1.6741012205104547E-002
  -1.3387232499459006E-002
  -1.0674855008243273E-002
  -8.4899130181834131E-003
  -6.6954005951131582E-003
  -4.9669346331499761E-003
  -3.4834115770621360E-003
  -1.7484765430672397E-003
   2.0910582411349991E-006
   5.0708879369636172E-006
   8.5184582989696926E-006
   1.3931149054252217E-005
   1.9366021022604773E-005
   2.5891868517054675E-005
   3.4988114403226080E-005
   5.2017770791223742E-005
   6.5797556099876008E-005
   6.4497804428340701E-005
  -2.2525792213939907E-002
  -2.2546051969204409E-002
  -1.7754202867435315E-002
  -1.3344898951608498E-002
  -9.8936383677793362E-003
  -7.2012055267872141E-003
  -5.0317451817338179E-003
  -3.1235319216275192E-003
   1.4102575725678667E-006
   4.4427862237328975E-006
   6.6865213660528143E-006
   9.8908358380570977E-006
   1.4755915782359869E-005
   1.8607322152554243E-005
   2.2732122565773234E-005
   2.7645418510832852E-005
   3.4033946897402675E-005
   4.3186292688113549E-005
   6.0432135509218802E-005
   7.5334047874168992E-005
   7.4614742586844989E-005
  -1.9682462393812071E-002
  -1.9688113202271762E-002
  -1.3871807271800497E-002
  -9.3948645485359694E-003
  -6.0640192570007682E-003
  -3.3773305217074693E-003
   2.4402949504926681E-006
   6.4101156269249943E-006
   1.0069264723904687E-005
   1.4818784362151592E-005
   1.8478784416885252E-005
   2.1695274800704251E-005
   2.4842619393718068E-005
   2.8256667733285692E-005
   3.2198265199329144E-005
   3.7070645667350202E-005
   4.3515366602200175E-005
   5.2808522522989178E-005
   7.0291136861425183E-005
   8.6618446104499535E-005
   8.6685892809825745E-005
  -1.5383880502831897E-002
  -1.5426009114745655E-002
  -8.9558224748062312E-003
  -4.9242097438131601E-003
   2.7563180333632381E-006
   8.0803932241523047E-006
   1.3206604428745212E-005
   1.9680883261178249E-005
   2.4035747945862074E-005
   2.7465071636987933E-005
   3.0507752295271831E-005
   3.3457965101494566E-005
   3.6477090262183649E-005
   3.9843803262439241E-005
   4.3815242056132191E-005
   4.8749642103533467E-005
   5.5289664595507464E-005
   6.4742568995894154E-005
   8.2474739802894032E-005
   1.0048017419797880E-004
   1.0145427341442662E-004
  -9.4757105413141324E-003
  -9.2134402708413873E-003
   5.8696188997557886E-007
   8.2103890516809310E-006
   1.6177596313878055E-005
   2.4921217619482741E-005
   3.1158412222597313E-005
   3.5737191006912578E-005
   3.9452734763114448E-005
   4.2663735624426887E-005
   4.5624680299780087E-005
   4.8567793216698201E-005
   5.1633320452617375E-005
   5.5041296976091319E-005
   5.9080518921522841E-005
   6.4114602919064978E-005
   7.0773266781168942E-005
   8.0387929866394632E-005
   9.8373099225327975E-005
   1.1822608651983477E-004
   1.2006034562440820E-004
  -2.8031832851729945E-003
   2.4626883652495382E-006
   1.5735716291500405E-005
   2.8851879403305942E-005
   4.0052138593432943E-005
   4.7317922939449781E-005
   5.2740440064984371E-005
   5.7100728918214618E-005
   6.0769217804713434E-005
   6.4021637240987031E-005
   6.7042179386986547E-005
   7.0042261428865065E-005
   7.3198371953891786E-005
   7.6703096009178893E-005
   8.0840660581012056E-005
   8.5996185565521819E-005
   9.2796160388681906E-005
   1.0257844189653932E-004
   1.2081106845761208E-004
   1.4241735243284302E-004
   1.4461519924009966E-004
   2.8174158929183400E-005
   2.9612370269711800E-005
   4.9899199778254538E-005
   6.7538872949054300E-005
   7.7278897483815551E-005
   8.4326814526036238E-005
   8.9767748534061553E-005
   9.4225201014613768E-005
   9.8015533628627129E-005
   1.0138556211315079E-004
   1.0453234740982111E-004
   1.0764467191907432E-004
   1.1091938818381377E-004
   1.1455739601065308E-004
   1.1883074683269134E-004
   1.2413536543731199E-004
   1.3110505273872768E-004
   1.4106816308649925E-004
   1.5949232757319587E-004
   1.8135177857122581E-004
   1.8117852121635194E-004
   1.2625123629531079E-004
   1.1881023051386288E-004
   1.5121447958530378E-004
   1.7941676736258570E-004
   1.9970301969898736E-004
   2.1763923475571269E-004
   2.3454610306403642E-004
   2.5100927541771777E-004
   2.6740256693436293E-004
   2.8397560845146494E-004
   3.0094813183808916E-004
   3.1853754133753071E-004
   3.3699428500304798E-004
   3.5661979463985578E-004
   3.7781615655817409E-004
   4.0118388537158594E-004
   4.2770318430552379E-004
   4.5931548740707213E-004
   5.0306043770355911E-004
   5.5232274345291821E-004
   4.5120902021568627E-004
   1.6752972563992079E-004
   1.7801700958824631E-004
   2.1530705469067165E-004
   2.5769804399753549E-004
   2.8894370665318779E-004
   3.1771500722204213E-004
   3.4579115107816855E-004
   3.7391899137752320E-004
   4.0250905832098986E-004
   4.3184772729130624E-004
   4.6216929916334228E-004
   4.9371149308155809E-004
   5.2675559901885119E-004
   5.6166321941980752E-004
   5.9892460176733239E-004
   6.3926099796997771E-004
   6.8383286301343610E-004
   7.3480714519542781E-004
   7.9875462396765081E-004
   8.7575343400390796E-004
   9.2532915014753364E-004
  -4.3712283546906379E-002
  -4.2445526449550894E-002
  -4.1589533242166278E-002
  -4.1015713958366555E-002
  -4.0551904154143115E-002
  -4.0169520982162650E-002
  -3.9847074763502986E-002
  -3.9569156400924357E-002
  -3.9323104008875891E-002
  -3.9095546181844076E-002
  -3.8876535758587349E-002
  -3.8652530958128158E-002
  -3.8410224988078806E-002
  -3.8132338553474365E-002
  -3.7798442310542357E-002
  -3.7378856014288198E-002
  -3.6827506379275697E-002
  -3.6062624711932320E-002
  -3.4936511242643270E-002
  -3.2558777648026969E-002
  -3.1510772118905801E-002
  -4.0839210750836748E-002
  -4.0498611286164929E-002
  -3.9057652802816319E-002
  -3.8332737812363099E-002
  -3.7771575839922106E-002
  -3.7334268520108634E-002
  -3.6978449664902532E-002
  -3.6678213804041994E-002
  -3.6413804815934231E-002
  -3.6170004695993206E-002
  -3.5933320691789512E-002
  -3.5688506515700970E-002
  -3.5421071592992487E-002
  -3.5112272972587601E-002
  -3.4737871020200213E-002
  -3.4262617381436780E-002
  -3.3629485561205069E-002
  -3.2736342626581469E-002
  -3.1369120268384197E-002
  -2.8502177488834466E-002
  -2.8622443839405855E-002
  -3.7477078562530221E-002
  -3.7077351707657767E-002
  -3.5094752056331009E-002
  -3.4109546906622754E-002
  -3.3363761132520105E-002
  -3.2773706311671182E-002
  -3.2286995503177610E-002
  -3.1870450535130428E-002
  -3.1500484344978659E-002
  -3.1156022193386559E-002
  -3.0817846380798455E-002
  -3.0465536163018132E-002
  -3.0075427165567832E-002
  -2.9617904755818929E-002
  -2.9041248237594956E-002
  -2.8271315876711962E-002
  -2.7121495532109071E-002
  -2.5333050777560324E-002
  -2.2771436888717626E-002
  -1.8596614880550241E-002
  -1.8730883237658185E-002
  -3.4992985485278585E-002
  -3.4772789036977378E-002
  -3.2498336951114322E-002
  -3.1252288564651939E-002
  -3.0283392340296974E-002
  -2.9489994550999845E-002
  -2.8806846449639923E-002
  -2.8191659957827433E-002
  -2.7608910318485655E-002
  -2.7020429292626821E-002
  -2.6401853709574961E-002
  -2.5765468301599939E-002
  -2.5081288061483888E-002
  -2.4304940281631549E-002
  -2.3380185826978032E-002
  -2.2230056808609462E-002
  -2.0739982394372448E-002
  -1.8710517718034964E-002
  -1.5815110289038349E-002
  -1.1485265843691181E-002
  -1.1740767817775931E-002
  -3.2979675095685765E-002
  -3.2838196495039516E-002
  -3.0265650847835605E-002
  -2.8676829059598626E-002
  -2.7308186668857256E-002
  -2.6032956216510073E-002
  -2.4973883312694949E-002
  -2.4089338223655006E-002
  -2.3318850651865754E-002
  -2.2615672314531498E-002
  -2.1939955265065730E-002
  -2.1253033894656229E-002
  -2.0512697785486859E-002
  -1.9670010906473363E-002
  -1.8662485624086126E-002
  -1.7393961195907953E-002
  -1.5710790554192670E-002
  -1.3427098665783468E-002
  -9.7199415102308551E-003
  -3.9334135348238581E-003
  -4.1153098065002339E-003
  -3.1245702873178655E-002
  -3.1133409291358920E-002
  -2.8160524801937408E-002
  -2.5892301335109492E-002
  -2.4084410025449629E-002
  -2.2695882965564171E-002
  -2.1584402297181372E-002
  -2.0654950770434385E-002
  -1.9842543067823421E-002
  -1.9097772025942379E-002
  -1.8377829389731360E-002
  -1.7640862947330180E-002
  -1.6840755143747426E-002
  -1.5913482878319576E-002
  -1.4778337578671776E-002
  -1.3344469753331213E-002
  -1.1291651200613692E-002
  -7.9206988427920309E-003
  -3.1718964232268668E-003
   2.5293900059942492E-003
   2.2072099976167478E-003
  -2.9654813844298997E-002
  -2.9552876818248974E-002
  -2.5853269124018197E-002
  -2.3267328119270889E-002
  -2.1395361456745133E-002
  -1.9961468817803193E-002
  -1.8803494809237230E-002
  -1.7825475052957850E-002
  -1.6962389591475318E-002
  -1.6163117485540324E-002
  -1.5377525756572996E-002
  -1.4553977822012688E-002
  -1.3649359031852966E-002
  -1.2600715991547447E-002
  -1.1111011419038024E-002
  -9.0052228863898090E-003
  -6.3086500859200574E-003
  -2.5766700373118564E-003
   5.8455366920325729E-003
   6.0218501043693305E-003
   5.9906457411304289E-003
  -2.8043877936486137E-002
  -2.7948983590870918E-002
  -2.3695610779414934E-002
  -2.1034382667788790E-002
  -1.9114052644417633E-002
  -1.7624902991909483E-002
  -1.6405814186495574E-002
  -1.5359515576053183E-002
  -1.4411545191955422E-002
  -1.3513578692352210E-002
  -1.2622606585555085E-002
  -1.1591823459410859E-002
  -1.0230902040734166E-002
  -8.6893003205116958E-003
  -6.8887521669432654E-003
  -4.7529634926729031E-003
  -2.1504181097395073E-003
   1.1605495875071745E-003
   5.9650820829082532E-003
   6.0942136480697136E-003
   6.0672646937585733E-003
  -2.6196724270849320E-002
  -2.6128007093068936E-002
  -2.1773776727925007E-002
  -1.9059101722890368E-002
  -1.7076793469641055E-002
  -1.5511113317758349E-002
  -1.4191038973167935E-002
  -1.3023974304680571E-002
  -1.1928804450034643E-002
  -1.0593069861604321E-002
  -9.2648910383676623E-003
  -7.9146965550200878E-003
  -6.4906474315621250E-003
  -4.9340723375246483E-003
  -3.1553226002683085E-003
  -1.0957115185570906E-003
   1.5927071935219526E-003
   5.9387240077120327E-003
   6.0297740667589307E-003
   6.1409828094265619E-003
   6.1091010406741563E-003
  -2.4391250559020531E-002
  -2.4375360505633860E-002
  -1.9994094102848338E-002
  -1.7213599769865147E-002
  -1.5136292656233466E-002
  -1.3438306150964740E-002
  -1.1948687069323548E-002
  -1.0236370627073933E-002
  -8.6646172546829478E-003
  -7.2232716318254642E-003
  -5.8605997165339044E-003
  -4.5137931009960209E-003
  -3.0951435478198510E-003
  -1.5315852008332311E-003
   9.6499280693929687E-005
   2.3758897933020833E-003
   5.9445285355272815E-003
   6.0098918481581165E-003
   6.0705639744217258E-003
   6.1763384779414910E-003
   6.1422180639805020E-003
  -2.2644794579817672E-002
  -2.2671734647001490E-002
  -1.8249347528636571E-002
  -1.5364412955900231E-002
  -1.3135649998386054E-002
  -1.1039363972403324E-002
  -8.9051951485196561E-003
  -7.0611497792485139E-003
  -5.4638596648577979E-003
  -4.0247010295425042E-003
  -2.6449754371762309E-003
  -1.3066132047951670E-003
  -1.6669952145942303E-005
   1.7423820217316653E-003
   3.4669164134135942E-003
   5.9596299527522106E-003
   6.0080254968305092E-003
   6.0473225587067301E-003
   6.1028779575522836E-003
   6.2065561066399497E-003
   6.1714590203743374E-003
  -2.0849773705646325E-002
  -2.0910205761620108E-002
  -1.6412278904685842E-002
  -1.3367932203131642E-002
  -1.0629123803928567E-002
  -7.9685062677220080E-003
  -5.7623120905169033E-003
  -3.9200089421384645E-003
  -2.3061923269589190E-003
  -8.7192369148877556E-004
   5.0012296151566188E-004
   1.9402510260341100E-003
   3.3556704448340540E-003
   5.9496941783954375E-003
   5.9838576786982152E-003
   6.0144711110288454E-003
   6.0436165952104685E-003
   6.0780125384985407E-003
   6.1314156556769896E-003
   6.2348783536423881E-003
   6.1994387043506852E-003
  -1.8886163464131848E-002
  -1.8966601741757773E-002
  -1.4337355931814403E-002
  -1.0825167889103711E-002
  -7.4465504055288515E-003
  -4.7172128432892441E-003
  -2.5215030069571740E-003
  -7.1825323647521329E-004
   1.0135491859818704E-003
   2.4968268509134562E-003
   4.2206149023980523E-003
   5.9571458775577336E-003
   5.9840621303200222E-003
   6.0088552105040114E-003
   6.0286928506569594E-003
   6.0496845278578699E-003
   6.0742162760855818E-003
   6.1067403437079816E-003
   6.1595053843929133E-003
   6.2635777113926056E-003
   6.2282401323545573E-003
  -1.6608855688976069E-002
  -1.6654200829883090E-002
  -1.1839039796906054E-002
  -7.4008351726209927E-003
  -3.9309306983611276E-003
  -1.2271386528794161E-003
   9.4880027971975687E-004
   2.8590005345624373E-003
   5.9406465211863189E-003
   5.9744764764251487E-003
   5.9956364691065569E-003
   6.0156956583613998E-003
   6.0319594283130464E-003
   6.0472451151413146E-003
   6.0632511049267370E-003
   6.0817948168617134E-003
   6.1050311346096467E-003
   6.1369202235220278E-003
   6.1895472794245504E-003
   6.2947878712445744E-003
   6.2598631867562217E-003
  -1.3737619717901575E-002
  -1.3756287209574935E-002
  -7.9239050795219534E-003