# vtk DataFile Version 2.0
3D Unstructured Grid of Linear Triangles
ASCII
DATASET UNSTRUCTURED_GRID
FIELD FieldData  1
TIME 1 1 double
        3600.00000
POINTS     7056 float
      0.00000000E+00  1.00000000E+01  1.00000000E+00
      5.00000000E-01  1.00000000E+01  9.93333333E-01
      1.00000000E+00  1.00000000E+01  9.83333333E-01
      1.50000000E+00  1.00000000E+01  9.73333333E-01
      2.00000000E+00  1.00000000E+01  9.63333333E-01
      2.50000000E+00  1.00000000E+01  9.53333333E-01
      3.00000000E+00  1.00000000E+01  9.43333333E-01
      3.50000000E+00  1.00000000E+01  9.33333333E-01
      4.00000000E+00  1.00000000E+01  9.23333333E-01
      4.50000000E+00  1.00000000E+01  9.13333333E-01
      5.00000000E+00  1.00000000E+01  9.03333333E-01
      5.50000000E+00  1.00000000E+01  8.93333333E-01
      6.00000000E+00  1.00000000E+01  8.83333333E-01
      6.50000000E+00  1.00000000E+01  8.73333333E-01
      7.00000000E+00  1.00000000E+01  8.63333333E-01
      7.50000000E+00  1.00000000E+01  8.53333333E-01
      8.00000000E+00  1.00000000E+01  8.43333333E-01
      8.50000000E+00  1.00000000E+01  8.33333333E-01
      9.00000000E+00  1.00000000E+01  8.23333333E-01
      9.50000000E+00  1.00000000E+01  8.13333333E-01
      1.00000000E+01  1.00000000E+01  8.10000000E-01
      0.00000000E+00  9.50000000E+00  9.83333333E-01
      5.00000000E-01  9.50000000E+00  9.82500000E-01
      1.00000000E+00  9.50000000E+00  9.72500000E-01
      1.50000000E+00  9.50000000E+00  9.62500000E-01
      2.00000000E+00  9.50000000E+00  9.52500000E-01
      2.50000000E+00  9.50000000E+00  9.42500000E-01
      3.00000000E+00  9.50000000E+00  9.32500000E-01
      3.50000000E+00  9.50000000E+00  9.22500000E-01
      4.00000000E+00  9.50000000E+00  9.12500000E-01
      4.50000000E+00  9.50000000E+00  9.02500000E-01
      5.00000000E+00  9.50000000E+00  8.92500000E-01
      5.50000000E+00  9.50000000E+00  8.82500000E-01
      6.00000000E+00  9.50000000E+00  8.72500000E-01
      6.50000000E+00  9.50000000E+00  8.62500000E-01
      7.00000000E+00  9.50000000E+00  8.52500000E-01
      7.50000000E+00  9.50000000E+00  8.42500000E-01
      8.00000000E+00  9.50000000E+00  8.32500000E-01
      8.50000000E+00  9.50000000E+00  8.22500000E-01
      9.00000000E+00  9.50000000E+00  8.12500000E-01
      9.50000000E+00  9.50000000E+00  8.02500000E-01
      1.00000000E+01  9.50000000E+00  8.01666667E-01
      0.00000000E+00  9.00000000E+00  9.58333333E-01
      5.00000000E-01  9.00000000E+00  9.57500000E-01
      1.00000000E+00  9.00000000E+00  9.47500000E-01
      1.50000000E+00  9.00000000E+00  9.37500000E-01
      2.00000000E+00  9.00000000E+00  9.27500000E-01
      2.50000000E+00  9.00000000E+00  9.17500000E-01
      3.00000000E+00  9.00000000E+00  9.07500000E-01
      3.50000000E+00  9.00000000E+00  8.97500000E-01
      4.00000000E+00  9.00000000E+00  8.87500000E-01
      4.50000000E+00  9.00000000E+00  8.77500000E-01
      5.00000000E+00  9.00000000E+00  8.67500000E-01
      5.50000000E+00  9.00000000E+00  8.57500000E-01
      6.00000000E+00  9.00000000E+00  8.47500000E-01
      6.50000000E+00  9.00000000E+00  8.37500000E-01
      7.00000000E+00  9.00000000E+00  8.27500000E-01
      7.50000000E+00  9.00000000E+00  8.17500000E-01
      8.00000000E+00  9.00000000E+00  8.07500000E-01
      8.50000000E+00  9.00000000E+00  7.97500000E-01
      9.00000000E+00  9.00000000E+00  7.87500000E-01
      9.50000000E+00  9.00000000E+00  7.77500000E-01
      1.00000000E+01  9.00000000E+00  7.76666667E-01
      0.00000000E+00  8.50000000E+00  9.33333333E-01
      5.00000000E-01  8.50000000E+00  9.32500000E-01
      1.00000000E+00  8.50000000E+00  9.22500000E-01
      1.50000000E+00  8.50000000E+00  9.12500000E-01
      2.00000000E+00  8.50000000E+00  9.02500000E-01
      2.50000000E+00  8.50000000E+00  8.92500000E-01
      3.00000000E+00  8.50000000E+00  8.82500000E-01
      3.50000000E+00  8.50000000E+00  8.72500000E-01
      4.00000000E+00  8.50000000E+00  8.62500000E-01
      4.50000000E+00  8.50000000E+00  8.52500000E-01
      5.00000000E+00  8.50000000E+00  8.42500000E-01
      5.50000000E+00  8.50000000E+00  8.32500000E-01
      6.00000000E+00  8.50000000E+00  8.22500000E-01
      6.50000000E+00  8.50000000E+00  8.12500000E-01
      7.00000000E+00  8.50000000E+00  8.02500000E-01
      7.50000000E+00  8.50000000E+00  7.92500000E-01
      8.00000000E+00  8.50000000E+00  7.82500000E-01
      8.50000000E+00  8.50000000E+00  7.72500000E-01
      9.00000000E+00  8.50000000E+00  7.62500000E-01
      9.50000000E+00  8.50000000E+00  7.52500000E-01
      1.00000000E+01  8.50000000E+00  7.51666667E-01
      0.00000000E+00  8.00000000E+00  9.08333333E-01
      5.00000000E-01  8.00000000E+00  9.07500000E-01
      1.00000000E+00  8.00000000E+00  8.97500000E-01
      1.50000000E+00  8.00000000E+00  8.87500000E-01
      2.00000000E+00  8.00000000E+00  8.77500000E-01
      2.50000000E+00  8.00000000E+00  8.67500000E-01
      3.00000000E+00  8.00000000E+00  8.57500000E-01
      3.50000000E+00  8.00000000E+00  8.47500000E-01
      4.00000000E+00  8.00000000E+00  8.37500000E-01
      4.50000000E+00  8.00000000E+00  8.27500000E-01
      5.00000000E+00  8.00000000E+00  8.17500000E-01
      5.50000000E+00  8.00000000E+00  8.07500000E-01
      6.00000000E+00  8.00000000E+00  7.97500000E-01
      6.50000000E+00  8.00000000E+00  7.87500000E-01
      7.00000000E+00  8.00000000E+00  7.77500000E-01
      7.50000000E+00  8.00000000E+00  7.67500000E-01
      8.00000000E+00  8.00000000E+00  7.57500000E-01
      8.50000000E+00  8.00000000E+00  7.47500000E-01
      9.00000000E+00  8.00000000E+00  7.37500000E-01
      9.50000000E+00  8.00000000E+00  7.27500000E-01
      1.00000000E+01  8.00000000E+00  7.26666667E-01
      0.00000000E+00  7.50000000E+00  8.83333333E-01
      5.00000000E-01  7.50000000E+00  8.82500000E-01
      1.00000000E+00  7.50000000E+00  8.72500000E-01
      1.50000000E+00  7.50000000E+00  8.62500000E-01
      2.00000000E+00  7.50000000E+00  8.52500000E-01
      2.50000000E+00  7.50000000E+00  8.42500000E-01
      3.00000000E+00  7.50000000E+00  8.32500000E-01
      3.50000000E+00  7.50000000E+00  8.22500000E-01
      4.00000000E+00  7.50000000E+00  8.12500000E-01
      4.50000000E+00  7.50000000E+00  8.02500000E-01
      5.00000000E+00  7.50000000E+00  7.92500000E-01
      5.50000000E+00  7.50000000E+00  7.82500000E-01
      6.00000000E+00  7.50000000E+00  7.72500000E-01
      6.50000000E+00  7.50000000E+00  7.62500000E-01
      7.00000000E+00  7.50000000E+00  7.52500000E-01
      7.50000000E+00  7.50000000E+00  7.42500000E-01
      8.00000000E+00  7.50000000E+00  7.32500000E-01
      8.50000000E+00  7.50000000E+00  7.22500000E-01
      9.00000000E+00  7.50000000E+00  7.12500000E-01
      9.50000000E+00  7.50000000E+00  7.02500000E-01
      1.00000000E+01  7.50000000E+00  7.01666667E-01
      0.00000000E+00  7.00000000E+00  8.58333333E-01
      5.00000000E-01  7.00000000E+00  8.57500000E-01
      1.00000000E+00  7.00000000E+00  8.47500000E-01
      1.50000000E+00  7.00000000E+00  8.37500000E-01
      2.00000000E+00  7.00000000E+00  8.27500000E-01
      2.50000000E+00  7.00000000E+00  8.17500000E-01
      3.00000000E+00  7.00000000E+00  8.07500000E-01
      3.50000000E+00  7.00000000E+00  7.97500000E-01
      4.00000000E+00  7.00000000E+00  7.87500000E-01
      4.50000000E+00  7.00000000E+00  7.77500000E-01
      5.00000000E+00  7.00000000E+00  7.67500000E-01
      5.50000000E+00  7.00000000E+00  7.57500000E-01
      6.00000000E+00  7.00000000E+00  7.47500000E-01
      6.50000000E+00  7.00000000E+00  7.37500000E-01
      7.00000000E+00  7.00000000E+00  7.27500000E-01
      7.50000000E+00  7.00000000E+00  7.17500000E-01
      8.00000000E+00  7.00000000E+00  7.07500000E-01
      8.50000000E+00  7.00000000E+00  6.97500000E-01
      9.00000000E+00  7.00000000E+00  6.87500000E-01
      9.50000000E+00  7.00000000E+00  6.77500000E-01
      1.00000000E+01  7.00000000E+00  6.76666667E-01
      0.00000000E+00  6.50000000E+00  8.33333333E-01
      5.00000000E-01  6.50000000E+00  8.32500000E-01
      1.00000000E+00  6.50000000E+00  8.22500000E-01
      1.50000000E+00  6.50000000E+00  8.12500000E-01
      2.00000000E+00  6.50000000E+00  8.02500000E-01
      2.50000000E+00  6.50000000E+00  7.92500000E-01
      3.00000000E+00  6.50000000E+00  7.82500000E-01
      3.50000000E+00  6.50000000E+00  7.72500000E-01
      4.00000000E+00  6.50000000E+00  7.62500000E-01
      4.50000000E+00  6.50000000E+00  7.52500000E-01
      5.00000000E+00  6.50000000E+00  7.42500000E-01
      5.50000000E+00  6.50000000E+00  7.32500000E-01
      6.00000000E+00  6.50000000E+00  7.22500000E-01
      6.50000000E+00  6.50000000E+00  7.12500000E-01
      7.00000000E+00  6.50000000E+00  7.02500000E-01
      7.50000000E+00  6.50000000E+00  6.92500000E-01
      8.00000000E+00  6.50000000E+00  6.82500000E-01
      8.50000000E+00  6.50000000E+00  6.72500000E-01
      9.00000000E+00  6.50000000E+00  6.62500000E-01
      9.50000000E+00  6.50000000E+00  6.52500000E-01
      1.00000000E+01  6.50000000E+00  6.51666667E-01
      0.00000000E+00  6.00000000E+00  8.08333333E-01
      5.00000000E-01  6.00000000E+00  8.07500000E-01
      1.00000000E+00  6.00000000E+00  7.97500000E-01
      1.50000000E+00  6.00000000E+00  7.87500000E-01
      2.00000000E+00  6.00000000E+00  7.77500000E-01
      2.50000000E+00  6.00000000E+00  7.67500000E-01
      3.00000000E+00  6.00000000E+00  7.57500000E-01
      3.50000000E+00  6.00000000E+00  7.47500000E-01
      4.00000000E+00  6.00000000E+00  7.37500000E-01
      4.50000000E+00  6.00000000E+00  7.27500000E-01
      5.00000000E+00  6.00000000E+00  7.17500000E-01
      5.50000000E+00  6.00000000E+00  7.07500000E-01
      6.00000000E+00  6.00000000E+00  6.97500000E-01
      6.50000000E+00  6.00000000E+00  6.87500000E-01
      7.00000000E+00  6.00000000E+00  6.77500000E-01
      7.50000000E+00  6.00000000E+00  6.67500000E-01
      8.00000000E+00  6.00000000E+00  6.57500000E-01
[...]
POINT_DATA     7056
SCALARS pressure float
LOOKUP_TABLE default
 -0.21050030711380974     
 -0.20881784613317214     
 -0.20863881934835421     
 -0.20843819991563320     
 -0.20820771791698017     
 -0.20798185145336506     
 -0.20776490748467144     
 -0.20755139240056492     
 -0.20735258340329094     
 -0.20714927599317057     
 -0.20694099927187362     
 -0.20672176475133139     
 -0.20647536097564234     
 -0.20618592775669778     
 -0.20583346882930020     
 -0.20538834797758385     
 -0.20481897616692415     
 -0.20403398245004548     
 -0.20336651074142831     
 -0.20057157950363017     
 -0.20068532479580406     
 -0.20802300938250756     
 -0.20599169890979835     
 -0.20518579868733750     
 -0.20541570122794059     
 -0.20540286066606436     
 -0.20541463741891686     
 -0.20542274901108262     
 -0.20541373645323396     
 -0.20538264526556990     
 -0.20533275298031109     
 -0.20523896265767858     
 -0.20510495242905361     
 -0.20490549689667120     
 -0.20462154880382788     
 -0.20422678497872399     
 -0.20368895892483138     
 -0.20296542951132954     
 -0.20199488239048694     
 -0.20092957272757797     
 -0.19820137255101902     
 -0.19858866262124217     
 -0.20711634416943894     
 -0.20525594352852741     
 -0.20415548607324976     
 -0.20436768772815925     
 -0.20415638021476615     
 -0.20397498747205464     
 -0.20378842868895980     
 -0.20358224211750608     
 -0.20334744638806940     
 -0.20306961236638915     
 -0.20273774775824432     
 -0.20233111435502721     
 -0.20182324339319871     
 -0.20119305262747483     
 -0.20040462283995117     
 -0.19941903870668246     
 -0.19819279737126969     
 -0.19666563464042708     
 -0.19496539137857102     
 -0.19159509735895808     
 -0.19094445722617423     
 -0.20628833125012666     
 -0.20533368121773518     
 -0.20395543261694221     
 -0.20413397802379618     
 -0.20380524806945211     
 -0.20351334109574665     
 -0.20318453505997994     
 -0.20280850403029410     
 -0.20237018683619484     
 -0.20185211145435372     
 -0.20123722690453730     
 -0.20050165359561845     
 -0.19961962272153544     
 -0.19855629219600071     
 -0.19727458539455142     
 -0.19573276438795362     
 -0.19388527431002300     
 -0.19167443955084104     
 -0.18919299279288218     
 -0.18505994483445143     
 -0.18443199486236192     
 -0.20543881471055522     
 -0.20504743481883062     
 -0.20325690325076826     
 -0.20327500925065997     
 -0.20277734742399414     
 -0.20228783562919037     
 -0.20173396182084852     
 -0.20110068993243685     
 -0.20037398311922813     
 -0.19953603371390052     
 -0.19856019408662265     
 -0.19741935666760349     
 -0.19608098808558644     
 -0.19450450123281643     
 -0.19264687258174479     
 -0.19046235009407911     
 -0.18790589387604648     
 -0.18494012858846595     
 -0.18164721321504113     
 -0.17675069279448191     
 -0.17600072659251861     
 -0.20448886146055439     
 -0.20447191162873818     
 -0.20231297509816173     
 -0.20208451794595036     
 -0.20134165833715661     
 -0.20056671999584874     
 -0.19970174922248815     
 -0.19872669692267594     
 -0.19762438688398315     
 -0.19636800423429984     
 -0.19492916751201700     
 -0.19327173642336684     
 -0.19135629354281070     
 -0.18913956034628304     
 -0.18658510015104873     
 -0.18366658261164065     
 -0.18035175558501337     
 -0.17659684848399157     
 -0.17243735549427497     
 -0.16671942336625198     
 -0.16591618194052690     
 -0.20327407764065963     
 -0.20343634432982136     
 -0.20091603813314296     
 -0.20032802391288479     
 -0.19925327208609883     
 -0.19810870083311349     
 -0.19684079071902100     
 -0.19542746292568869     
 -0.19384191133103268     
 -0.19205269285438381     
 -0.19002413636718268     
 -0.18772136605501524     
 -0.18511841396081061     
 -0.18219233695073661     
 -0.17890523941210812     
 -0.17521772587742543     
 -0.17108694513627684     
 -0.16646603992696277     
 -0.16133626062318765     
 -0.15470345582029491     
 -0.15395613577285439     
 -0.20157088329802533     
 -0.20174270197152580     
 -0.19885005391458663     
 -0.19779587202765539     
 -0.19628886892663985     
 -0.19466817655895324     
 -0.19287950035970436     
 -0.19089717167457915     
 -0.18869128494424722     
 -0.18623951145746195     
 -0.18352703034227702     
 -0.18052716767210661     
 -0.17720586595049942     
 -0.17352658218531666     
 -0.16944767781238004     
 -0.16492180674888057     
 -0.15986807041468068     
 -0.15427491488302345     
 -0.14825466650000363     
 -0.14105562325963664     
 -0.14037421428780286     
 -0.19909247130228080     
 -0.19916838772173628     
 -0.19585304336320467     
 -0.19419921382056621     
 -0.19212349487343358     
 -0.18987788535428721     
 -0.18742275433155753     
 -0.18475101267478494     
 -0.18185071224657637     
 -0.17869660429413364     
 -0.17526136854519078     
 -0.17151243435822205     
 -0.16741361767206059     
 -0.16291036294488589     
 -0.15792633142907081     
 -0.15252066051632426     
 -0.14671774860881137     
 -0.14048868814355542     
 -0.13381761636212858     
 -0.12613482441787141     
 -0.12546480342741895     
 -0.19547999061783569     
 -0.19538306008461159     
 -0.19153545514954015     
 -0.18912043234685116     
 -0.18632312601843140     
 -0.18334550409519115     
 -0.18016388004155107     
 -0.17676039821394596     
 -0.17311351947065332     
 -0.16919744460972552     
 -0.16497831680138764     
 -0.16039086549910145     
 -0.15542263065609122     
 -0.15014619104211391     
 -0.14453851217936906     
 -0.13857153958638463     
 -0.13220888061263189     
 -0.12542434818518131     
 -0.11824777122681078     
 -0.10998196283881950     
 -0.10930191909932373     
 -0.19024826604545961     
 -0.18992294508243926     
 -0.18543542682165615     
 -0.18216934337054044     
 -0.17859293289346109     
 -0.17482842162458787     
 -0.17085506878914336     
 -0.16665406054084939     
 -0.16218198677068926     
 -0.15739442813134044     
 -0.15237382844964525     
 -0.14712803132036251     
 -0.14162876357860354     
 -0.13585066264953524     
 -0.12975029117471168     
 -0.12333158219476273     
 -0.11656323386491899     
 -0.10911008264425201     
 -0.10116881584018253     
  -9.2574103678949637E-002
  -9.1921707067959740E-002
 -0.18296639034838649     
 -0.18240585877565288     
 -0.17725933768453775     
 -0.17308211687336150     
 -0.16864892694763281     
 -0.16401957013433013     
 -0.15914069011610660     
 -0.15407067755439599     
 -0.14887170736144695     
 -0.14352360984783785     
 -0.13800931122066329     
 -0.13229852482913138     
 -0.12637369894730796     
 -0.12024444359205078     
 -0.11372744125033755     
 -0.10673132807578091     
  -9.9365481433547120E-002
  -9.1686430060660060E-002
  -8.3483484363473276E-002
  -7.4554870501738105E-002
  -7.3910757712042210E-002
 -0.17332116823675786     
 -0.17258645189845309     
 -0.16670155765125214     
 -0.16152225115431609     
 -0.15611038523764798     
 -0.15063473704875122     
 -0.14510035236405427     
 -0.13949300839482637     
 -0.13379989964402977     
 -0.12800671546964223     
 -0.12213638465396338     
 -0.11611856139603434     
 -0.10969333723701180     
 -0.10304466612310272     
  -9.6192381290492929E-002
  -8.9174053908178369E-002
  -8.1615414021388596E-002
  -7.3668742186484365E-002
  -6.5315308363160546E-002
  -5.6484942793246097E-002
  -5.5971662236060662E-002
 -0.16091717142445358     
 -0.16014547545320612     
 -0.15341728124201601     
 -0.14739223304183513     
 -0.14135331989492267     
 -0.13531234303509196     
 -0.12925993600497623     
 -0.12323100408362082     
 -0.11720214950876404     
 -0.11090589320252825     
 -0.10452352104576383     
  -9.8098443126704085E-002
  -9.1627517581862605E-002
  -8.4965961149311181E-002
  -7.8017748449215052E-002
  -7.0821113979816303E-002
  -6.3393680054476861E-002
  -5.5661140723003280E-002
  -4.7422145062304299E-002
  -3.8662839232683877E-002
  -3.8252516460875671E-002
 -0.14590790008191398     
 -0.14522049024342823     
 -0.13800432743181226     
 -0.13136022254835689     
 -0.12479507033302148     
 -0.11833214833066194     
 -0.11170891293585836     
 -0.10506389562388113     
  -9.8514350684815150E-002
  -9.2088967269412736E-002
  -8.5688617649683635E-002
  -7.9189257402599342E-002
  -7.2649238514298636E-002
  -6.6068956366739720E-002
  -5.9466120610516468E-002
  -5.2546390087007372E-002
  -4.5344247882705926E-002
  -3.7801757714012833E-002
  -2.9967558267175374E-002
  -2.1805053549739870E-002
  -2.1717750880988748E-002
 -0.12907122784555952     
 -0.12842498380014267     
 -0.12082243766450573     
 -0.11357114290055290     
 -0.10626148087596013     
  -9.9121582258567195E-002
  -9.2211102273292753E-002
  -8.5398935776917956E-002
  -7.8611130774066146E-002
  -7.2005095674860922E-002
  -6.5679774496214982E-002
  -5.9591773661576752E-002
  -5.3381507014479586E-002
  -4.7103180926954986E-002
  -4.0728726117022863E-002
  -3.4399672423582571E-002
  -2.7711342914340183E-002
  -2.0220385902690017E-002
  -1.2005597936100336E-002
  -6.1140070142909567E-003
  -7.3170988132325327E-003
 -0.11039727653354239     
 -0.10973332489795297     
 -0.10139621212427888     
  -9.3573207373557857E-002
  -8.5974069265523770E-002
  -7.8453709810388808E-002
  -7.1227446419027243E-002
  -6.4361655171415441E-002
  -5.7726037889280352E-002
  -5.1144357084741354E-002
  -4.5151469198022015E-002
  -3.9538300576275005E-002
  -3.4014772373718499E-002
  -2.8282377482892619E-002
  -2.2064705278362899E-002
  -1.6752344691757813E-002
  -1.0894873111867544E-002
   2.8907896324572685E-004
   2.2730763064694030E-003
   1.5515984022100547E-003
   4.4827574726178363E-004
  -8.9674400545362368E-002
  -8.9057782390179460E-002
  -8.0254597041361730E-002
  -7.1917434715902881E-002
  -6.4065674678691828E-002
  -5.6640581684053504E-002
  -4.9466137745138139E-002
  -4.2649219270709894E-002
  -3.6103145333049265E-002
  -2.9062916874468648E-002
  -2.3925979868065373E-002
  -1.9449809055269111E-002
  -1.5066269217881288E-002
  -1.0067236928611832E-002
   1.0935872742509330E-004
   1.1412113929944138E-003
   2.4192857169201072E-003
   3.5983847971507504E-003
   6.4051009723665193E-003
   5.8494566609616685E-003
   2.5278701804225586E-003
  -6.7034789172947723E-002
  -6.6477242827608737E-002
  -5.7664773336084094E-002
  -4.9190093641255553E-002
  -4.1275258793041378E-002
  -3.4041312106203814E-002
  -2.7210662245975497E-002
  -2.0186411199416870E-002
  -1.4016952125581418E-002
   2.3823382740837255E-004
   1.3478277986440155E-003
   2.4394799998786235E-003
   3.4588694181848273E-003
   4.4856462853094768E-003
   5.5600905753840921E-003
   6.9806458691649403E-003
   8.8600553186023029E-003
   1.0420479472552476E-002
   1.2645308826368362E-002
   1.0079778472972924E-002
   5.8611051217604829E-003
  -4.3372333016029350E-002
  -4.2815844894575829E-002
  -3.3930201462379198E-002
  -2.5496848193547316E-002
  -1.7830722578021506E-002
  -1.0936197870811513E-002
  -5.1746616899391662E-003
   8.9770807063094726E-004
   2.0676959431271506E-003
   3.0382076487136291E-003
   4.2775395351447596E-003
   5.6029361112141986E-003
   6.7499122392584337E-003
   7.8780580304440712E-003
   8.9654015662939644E-003
   9.9168359700611587E-003
   1.0771511010493683E-002
   1.1568314887992299E-002
   1.2680065431479487E-002
   1.2220011480324523E-002
   8.5087876175150862E-003
  -3.5532988212566487E-002
  -3.2477309233869697E-002
  -2.3475557513525435E-002
  -1.5169058279645653E-002
  -7.6051461680530803E-003
  -1.3300877922028096E-003
   9.8056744312755917E-005
   1.1117996947310612E-003
   3.5908966088797215E-003
   5.2099691186684276E-003
   6.1129312452535582E-003
   6.5937496902042118E-003
   6.9469040514949778E-003
   7.2510425269698081E-003
   7.5446088296008892E-003
   7.8540380414025088E-003
   8.2075567629331207E-003
   8.6358090393986384E-003
   9.2301305163090090E-003
   9.8740723149324423E-003
   1.0103639476662761E-002
 -0.20464211710365085     
 -0.20299976270298545     
 -0.20282120505510487     
 -0.20262025686474258     
 -0.20238921074364052     
 -0.20216260451170637     
 -0.20194475635497897     
 -0.20173021778498246     
 -0.20153030341085013     
 -0.20132588177969107     
 -0.20111652616296546     
 -0.20089625517569351     
 -0.20064884559405299     
 -0.20035841750388278     
 -0.20000493903816138     
 -0.19955873716572470     
 -0.19898816303770919     
 -0.19820198314056028     
 -0.19753225991107132     
 -0.19473475028075196     
 -0.19492935143393098     
 -0.20221296694659452     
 -0.20024945950165801     
 -0.19944498586349213     
 -0.19967433528931228     
 -0.19966108493142659     
 -0.19967245081233842     
 -0.19968021935767452     
 -0.19967095314964958     
 -0.19963970668633230     
 -0.19958971155489319     
 -0.19949583420557573     
 -0.19936164496815126     
 -0.19916186982071474     
 -0.19887739347967900     
 -0.19848183048651397     
 -0.19794288132370588     
 -0.19721787645251837     
 -0.19624560196793825     
 -0.19517749389520994     
 -0.19244694143802674     
 -0.19291282109923510     
 -0.20130803340277373     
 -0.19951921175035051     
 -0.19842153426289327     
 -0.19863291855840451     
 -0.19842110116016262     
 -0.19823916304746622     
 -0.19805213659613954     
 -0.19784551609632053     
 -0.19761025972768639     
 -0.19733188343192154     
 -0.19699932897614530     
 -0.19659180976037735     
 -0.19608281801818853     
 -0.19545121333110552     
 -0.19466105738964207     
 -0.19367343096004919     
 -0.19244485000217063     
 -0.19091519974293256     
 -0.18921146652302503     
 -0.18583878822890448     
 -0.18526642483177433     
 -0.20047721852067688     
 -0.19959587156441258     
 -0.19822005701706505     
 -0.19839793682271067     
 -0.19806904310148121     
 -0.19777681170570058     
 -0.19744764855720062     
 -0.19707113449995220     
 -0.19663215863123493     
 -0.19611320058077991     
 -0.19549715646702071     
 -0.19476011340651964     
 -0.19387627707836988     
 -0.19281081423123533     
 -0.19152666982578972     
 -0.18998214367321675     
 -0.18813169766920690     
 -0.18591769236846570     
 -0.18343177834776317     
 -0.17929529844453426     
 -0.17874309165453936     
 -0.19962470638128504     
 -0.19930941928566212     
 -0.19752067992487726     
 -0.19753834426303596     
 -0.19704051145625090     
 -0.19655049905440974     
 -0.19599594388346714     
 -0.19536173951260488     
 -0.19463380533300592     
 -0.19379430457528965     
 -0.19281658933123486     
 -0.19167355579106898     
 -0.19033268903525458     
 -0.18875342723600083     
 -0.18689272775323390     
 -0.18470474538091447     
 -0.18214407263904825     
 -0.17917287468456874     
 -0.17587315418400787     
 -0.17097238233505210     
 -0.17029344842537519     
 -0.19867224395311411     
 -0.19873404779775822     
 -0.19657579987894983     
 -0.19634676024412143     
 -0.19560332174787870     
 -0.19482737172347084     
 -0.19396109414894225     
 -0.19298441721384602     
 -0.19188016079324902     
 -0.19062152942943789     
 -0.18918015272831845     
 -0.18751988560079746     
 -0.18560125371933189     
 -0.18338079207554206     
 -0.18082154860828872     
 -0.17789711778122996     
 -0.17457589569904233     
 -0.17081410413524409     
 -0.16664663332191451     
 -0.16092370379236204     
 -0.16018481985349733     
 -0.19745517738206644     
 -0.19769775639876208     
 -0.19517690293986190     
 -0.19458779842453786     
 -0.19351176113168669     
 -0.19236545962734802     
 -0.19109552727244777     
 -0.18967988834291588     
 -0.18809173886315259     
 -0.18629959564312787     
 -0.18426768203143254     
 -0.18196075935283526     
 -0.17935240949091749     
 -0.17642020471957595     
 -0.17312647081569854     
 -0.16943175743824707     
 -0.16529328574912500     
 -0.16066442281624879     
 -0.15552692095062870     
 -0.14888709326250862     
 -0.14819710055202551     
 -0.19574922220287425     
 -0.19600141385713091     
 -0.19310715375219492     
 -0.19205111447183296     
 -0.19054208032454559     
 -0.18891898101062654     
 -0.18712761460569374     
 -0.18514222109173709     
 -0.18293266537737451     
 -0.18047610705224512     
 -0.17775780995168966     
 -0.17475163807288888     
 -0.17142345886942387     
 -0.16773675878672578     
 -0.16364992769106076     
 -0.15911615352489980     
 -0.15405503799853718     
 -0.14845030342720711     
 -0.14241695251832467     
 -0.13520844459267875     
 -0.13457620074309792     
 -0.19326675746695898     
 -0.19342181223211471     
 -0.19010422248622910     
 -0.18844776492450671     
 -0.18636927827064451     
 -0.18412036209914673     
 -0.18166102880077517     
 -0.17898384272164897     
 -0.17607750076215695     
 -0.17291683254315213     
 -0.16947447713121530     
 -0.16571792222199505     
 -0.16161111192679770     
 -0.15710032483083555     
 -0.15210776489118075     
 -0.14668978878615119     
 -0.14087434270471044     
 -0.13463263287301516     
 -0.12794863062518030     
 -0.12025656698122365     
 -0.11962644781863006     
 -0.18964855783999005     
 -0.18962869846078140     
 -0.18577837113163309     
 -0.18335948195387808     
 -0.18055733169078833     
 -0.17757385684092017     
 -0.17438592457559757     
 -0.17097558613992400     
 -0.16732134651254693     
 -0.16339743312467297     
 -0.15917058843640905     
 -0.15457587332111900     
 -0.14959671348175305     
 -0.14430811601247803     
 -0.13868825370375060     
 -0.13270901528623796     
 -0.12633431399806241     
 -0.11953692935208649     
 -0.11234805716860373     
 -0.10407766908400894     
 -0.10343105927441636     
 -0.18440884946678002     
 -0.18415756663960420     
 -0.17966501274031357     
 -0.17639258492521373     
 -0.17280960729358630     
 -0.16903796605095933     
 -0.16505698551327005     
 -0.16084817275524782     
 -0.15636888977829577     
 -0.15157218920877144     
 -0.14653969984637061     
 -0.14128201391031839     
 -0.13577077557245726     
 -0.12998082512745232     
 -0.12386873294660675     
 -0.11743778976892959     
 -0.11066000063667500     
 -0.10319727357369719     
  -9.5244758032971263E-002
  -8.6641568243946962E-002
  -8.6012065209043143E-002
 -0.17711454459678327     
 -0.17662288260905212     
 -0.17147031430215870     
 -0.16728561193058988     
 -0.16284468872672583     
 -0.15820795425489365     
 -0.15332149025425346     
 -0.14823981489468283     
 -0.14302892126747463     
 -0.13766906062124318     
 -0.13214307038179043     
 -0.12642088891240977     
 -0.12048400703291735     
 -0.11434326177115040     
 -0.10781979080477530     
 -0.10081346030666444     
  -9.3436890737992995E-002
  -8.5746289603112563E-002
  -7.7535368003185154E-002
  -6.8601127575910054E-002
  -6.7973264748125858E-002
 -0.16745488677513329     
 -0.16678230560418830     
 -0.16089134775321529     
 -0.15570512594273225     
 -0.15028307406647681     
 -0.14479544240712072     
 -0.13924920855154022     
 -0.13363001126351298     
 -0.12792525203147542     
 -0.12212003012010191     
 -0.11623796417089140     
 -0.11021221681663020     
 -0.10377787255790298     
  -9.7119545109204092E-002
  -9.0257425258895102E-002
  -8.3229463636379938E-002
  -7.5663377315718067E-002
  -6.7708511159621246E-002
  -5.9346692303814841E-002
  -5.0512206723384176E-002
  -5.0008309624405153E-002
 -0.15503715323165337     
 -0.15432050580064322     
 -0.14758244647902435     
 -0.14154521805888742     
 -0.13549436979743479     
 -0.12944138310536502     
 -0.12337665461088723     
 -0.11733528861998602     
 -0.11129651888301423     
 -0.10499208118292033     
  -9.8599767917039532E-002
  -9.2164760001095053E-002
  -8.5684133540739268E-002
  -7.9016450245968303E-002
  -7.2060657847136583E-002
  -6.4856655038004932E-002
  -5.7422119369523676E-002
  -4.9683870468373047E-002
  -4.1439622342605287E-002
  -3.2677378099667066E-002
  -3.2271067862877249E-002
 -0.14000587297756256     
 -0.13936442481114084     
 -0.13213817362955202     