# vtk DataFile Version 2.0
3D Unstructured Grid of Linear Triangles
ASCII
DATASET UNSTRUCTURED_GRID
FIELD FieldData  1
TIME 1 1 double
        7200.00000
POINTS     7056 float
      0.00000000E+00  1.00000000E+01  1.00000000E+00
      5.00000000E-01  1.00000000E+01  9.93333333E-01
      1.00000000E+00  1.00000000E+01  9.83333333E-01
      1.50000000E+00  1.00000000E+01  9.73333333E-01
      2.00000000E+00  1.00000000E+01  9.63333333E-01
      2.50000000E+00  1.00000000E+01  9.53333333E-01
      3.00000000E+00  1.00000000E+01  9.43333333E-01
      3.50000000E+00  1.00000000E+01  9.33333333E-01
      4.00000000E+00  1.00000000E+01  9.23333333E-01
      4.50000000E+00  1.00000000E+01  9.13333333E-01
      5.00000000E+00  1.00000000E+01  9.03333333E-01
      5.50000000E+00  1.00000000E+01  8.93333333E-01
      6.00000000E+00  1.00000000E+01  8.83333333E-01
      6.50000000E+00  1.00000000E+01  8.73333333E-01
      7.00000000E+00  1.00000000E+01  8.63333333E-01
      7.50000000E+00  1.00000000E+01  8.53333333E-01
      8.00000000E+00  1.00000000E+01  8.43333333E-01
      8.50000000E+00  1.00000000E+01  8.33333333E-01
      9.00000000E+00  1.00000000E+01  8.23333333E-01
      9.50000000E+00  1.00000000E+01  8.13333333E-01
      1.00000000E+01  1.00000000E+01  8.10000000E-01
      0.00000000E+00  9.50000000E+00  9.83333333E-01
      5.00000000E-01  9.50000000E+00  9.82500000E-01
      1.00000000E+00  9.50000000E+00  9.72500000E-01
      1.50000000E+00  9.50000000E+00  9.62500000E-01
      2.00000000E+00  9.50000000E+00  9.52500000E-01
      2.50000000E+00  9.50000000E+00  9.42500000E-01
      3.00000000E+00  9.50000000E+00  9.32500000E-01
      3.50000000E+00  9.50000000E+00  9.22500000E-01
      4.00000000E+00  9.50000000E+00  9.12500000E-01
      4.50000000E+00  9.50000000E+00  9.02500000E-01
      5.00000000E+00  9.50000000E+00  8.92500000E-01
      5.50000000E+00  9.50000000E+00  8.82500000E-01
      6.00000000E+00  9.50000000E+00  8.72500000E-01
      6.50000000E+00  9.50000000E+00  8.62500000E-01
      7.00000000E+00  9.50000000E+00  8.52500000E-01
      7.50000000E+00  9.50000000E+00  8.42500000E-01
      8.00000000E+00  9.50000000E+00  8.32500000E-01
      8.50000000E+00  9.50000000E+00  8.22500000E-01
      9.00000000E+00  9.50000000E+00  8.12500000E-01
      9.50000000E+00  9.50000000E+00  8.02500000E-01
      1.00000000E+01  9.50000000E+00  8.01666667E-01
      0.00000000E+00  9.00000000E+00  9.58333333E-01
      5.00000000E-01  9.00000000E+00  9.57500000E-01
      1.00000000E+00  9.00000000E+00  9.47500000E-01
      1.50000000E+00  9.00000000E+00  9.37500000E-01
      2.00000000E+00  9.00000000E+00  9.27500000E-01
      2.50000000E+00  9.00000000E+00  9.17500000E-01
      3.00000000E+00  9.00000000E+00  9.07500000E-01
      3.50000000E+00  9.00000000E+00  8.97500000E-01
      4.00000000E+00  9.00000000E+00  8.87500000E-01
      4.50000000E+00  9.00000000E+00  8.77500000E-01
      5.00000000E+00  9.00000000E+00  8.67500000E-01
      5.50000000E+00  9.00000000E+00  8.57500000E-01
      6.00000000E+00  9.00000000E+00  8.47500000E-01
      6.50000000E+00  9.00000000E+00  8.37500000E-01
      7.00000000E+00  9.00000000E+00  8.27500000E-01
      7.50000000E+00  9.00000000E+00  8.17500000E-01
      8.00000000E+00  9.00000000E+00  8.07500000E-01
      8.50000000E+00  9.00000000E+00  7.97500000E-01
      9.00000000E+00  9.00000000E+00  7.87500000E-01
      9.50000000E+00  9.00000000E+00  7.77500000E-01
      1.00000000E+01  9.00000000E+00  7.76666667E-01
      0.00000000E+00  8.50000000E+00  9.33333333E-01
      5.00000000E-01  8.50000000E+00  9.32500000E-01
      1.00000000E+00  8.50000000E+00  9.22500000E-01
      1.50000000E+00  8.50000000E+00  9.12500000E-01
      2.00000000E+00  8.50000000E+00  9.02500000E-01
      2.50000000E+00  8.50000000E+00  8.92500000E-01
      3.00000000E+00  8.50000000E+00  8.82500000E-01
      3.50000000E+00  8.50000000E+00  8.72500000E-01
      4.00000000E+00  8.50000000E+00  8.62500000E-01
      4.50000000E+00  8.50000000E+00  8.52500000E-01
      5.00000000E+00  8.50000000E+00  8.42500000E-01
      5.50000000E+00  8.50000000E+00  8.32500000E-01
      6.00000000E+00  8.50000000E+00  8.22500000E-01
      6.50000000E+00  8.50000000E+00  8.12500000E-01
      7.00000000E+00  8.50000000E+00  8.02500000E-01
      7.50000000E+00  8.50000000E+00  7.92500000E-01
      8.00000000E+00  8.50000000E+00  7.82500000E-01
      8.50000000E+00  8.50000000E+00  7.72500000E-01
      9.00000000E+00  8.50000000E+00  7.62500000E-01
      9.50000000E+00  8.50000000E+00  7.52500000E-01
      1.00000000E+01  8.50000000E+00  7.51666667E-01
      0.00000000E+00  8.00000000E+00  9.08333333E-01
      5.00000000E-01  8.00000000E+00  9.07500000E-01
      1.00000000E+00  8.00000000E+00  8.97500000E-01
      1.50000000E+00  8.00000000E+00  8.87500000E-01
      2.00000000E+00  8.00000000E+00  8.77500000E-01
      2.50000000E+00  8.00000000E+00  8.67500000E-01
      3.00000000E+00  8.00000000E+00  8.57500000E-01
      3.50000000E+00  8.00000000E+00  8.47500000E-01
      4.00000000E+00  8.00000000E+00  8.37500000E-01
      4.50000000E+00  8.00000000E+00  8.27500000E-01
      5.00000000E+00  8.00000000E+00  8.17500000E-01
      5.50000000E+00  8.00000000E+00  8.07500000E-01
      6.00000000E+00  8.00000000E+00  7.97500000E-01
      6.50000000E+00  8.00000000E+00  7.87500000E-01
      7.00000000E+00  8.00000000E+00  7.77500000E-01
      7.50000000E+00  8.00000000E+00  7.67500000E-01
      8.00000000E+00  8.00000000E+00  7.57500000E-01
      8.50000000E+00  8.00000000E+00  7.47500000E-01
      9.00000000E+00  8.00000000E+00  7.37500000E-01
      9.50000000E+00  8.00000000E+00  7.27500000E-01
      1.00000000E+01  8.00000000E+00  7.26666667E-01
      0.00000000E+00  7.50000000E+00  8.83333333E-01
      5.00000000E-01  7.50000000E+00  8.82500000E-01
      1.00000000E+00  7.50000000E+00  8.72500000E-01
      1.50000000E+00  7.50000000E+00  8.62500000E-01
      2.00000000E+00  7.50000000E+00  8.52500000E-01
      2.50000000E+00  7.50000000E+00  8.42500000E-01
      3.00000000E+00  7.50000000E+00  8.32500000E-01
      3.50000000E+00  7.50000000E+00  8.22500000E-01
      4.00000000E+00  7.50000000E+00  8.12500000E-01
      4.50000000E+00  7.50000000E+00  8.02500000E-01
      5.00000000E+00  7.50000000E+00  7.92500000E-01
      5.50000000E+00  7.50000000E+00  7.82500000E-01
      6.00000000E+00  7.50000000E+00  7.72500000E-01
      6.50000000E+00  7.50000000E+00  7.62500000E-01
      7.00000000E+00  7.50000000E+00  7.52500000E-01
      7.50000000E+00  7.50000000E+00  7.42500000E-01
      8.00000000E+00  7.50000000E+00  7.32500000E-01
      8.50000000E+00  7.50000000E+00  7.22500000E-01
      9.00000000E+00  7.50000000E+00  7.12500000E-01
      9.50000000E+00  7.50000000E+00  7.02500000E-01
      1.00000000E+01  7.50000000E+00  7.01666667E-01
      0.00000000E+00  7.00000000E+00  8.58333333E-01
      5.00000000E-01  7.00000000E+00  8.57500000E-01
      1.00000000E+00  7.00000000E+00  8.47500000E-01
      1.50000000E+00  7.00000000E+00  8.37500000E-01
      2.00000000E+00  7.00000000E+00  8.27500000E-01
      2.50000000E+00  7.00000000E+00  8.17500000E-01
      3.00000000E+00  7.00000000E+00  8.07500000E-01
      3.50000000E+00  7.00000000E+00  7.97500000E-01
      4.00000000E+00  7.00000000E+00  7.87500000E-01
      4.50000000E+00  7.00000000E+00  7.77500000E-01
      5.00000000E+00  7.00000000E+00  7.67500000E-01
      5.50000000E+00  7.00000000E+00  7.57500000E-01
      6.00000000E+00  7.00000000E+00  7.47500000E-01
      6.50000000E+00  7.00000000E+00  7.37500000E-01
      7.00000000E+00  7.00000000E+00  7.27500000E-01
      7.50000000E+00  7.00000000E+00  7.17500000E-01
      8.00000000E+00  7.00000000E+00  7.07500000E-01
      8.50000000E+00  7.00000000E+00  6.97500000E-01
      9.00000000E+00  7.00000000E+00  6.87500000E-01
      9.50000000E+00  7.00000000E+00  6.77500000E-01
      1.00000000E+01  7.00000000E+00  6.76666667E-01
      0.00000000E+00  6.50000000E+00  8.33333333E-01
      5.00000000E-01  6.50000000E+00  8.32500000E-01
      1.00000000E+00  6.50000000E+00  8.22500000E-01
      1.50000000E+00  6.50000000E+00  8.12500000E-01
      2.00000000E+00  6.50000000E+00  8.02500000E-01
      2.50000000E+00  6.50000000E+00  7.92500000E-01
      3.00000000E+00  6.50000000E+00  7.82500000E-01
      3.50000000E+00  6.50000000E+00  7.72500000E-01
      4.00000000E+00  6.50000000E+00  7.62500000E-01
      4.50000000E+00  6.50000000E+00  7.52500000E-01
      5.00000000E+00  6.50000000E+00  7.42500000E-01
      5.50000000E+00  6.50000000E+00  7.32500000E-01
      6.00000000E+00  6.50000000E+00  7.22500000E-01
      6.50000000E+00  6.50000000E+00  7.12500000E-01
      7.00000000E+00  6.50000000E+00  7.02500000E-01
      7.50000000E+00  6.50000000E+00  6.92500000E-01
      8.00000000E+00  6.50000000E+00  6.82500000E-01
      8.50000000E+00  6.50000000E+00  6.72500000E-01
      9.00000000E+00  6.50000000E+00  6.62500000E-01
      9.50000000E+00  6.50000000E+00  6.52500000E-01
      1.00000000E+01  6.50000000E+00  6.51666667E-01
      0.00000000E+00  6.00000000E+00  8.08333333E-01
      5.00000000E-01  6.00000000E+00  8.07500000E-01
      1.00000000E+00  6.00000000E+00  7.97500000E-01
      1.50000000E+00  6.00000000E+00  7.87500000E-01
      2.00000000E+00  6.00000000E+00  7.77500000E-01
      2.50000000E+00  6.00000000E+00  7.67500000E-01
      3.00000000E+00  6.00000000E+00  7.57500000E-01
      3.50000000E+00  6.00000000E+00  7.47500000E-01
      4.00000000E+00  6.00000000E+00  7.37500000E-01
      4.50000000E+00  6.00000000E+00  7.27500000E-01
      5.00000000E+00  6.00000000E+00  7.17500000E-01
      5.50000000E+00  6.00000000E+00  7.07500000E-01
      6.00000000E+00  6.00000000E+00  6.97500000E-01
      6.50000000E+00  6.00000000E+00  6.87500000E-01
      7.00000000E+00  6.00000000E+00  6.77500000E-01
      7.50000000E+00  6.00000000E+00  6.67500000E-01
      8.00000000E+00  6.00000000E+00  6.57500000E-01
[...]
POINT_DATA     7056
SCALARS pressure float
LOOKUP_TABLE default
 -0.25661693744771796     
 -0.25477001996730464     
 -0.25475834496520161     
 -0.25472049235527217     
 -0.25459916831612683     
 -0.25442327366068268     
 -0.25419325511159335     
 -0.25390565725439795     
 -0.25357143076298122     
 -0.25318279520379983     
 -0.25274771153044323     
 -0.25227186358914888     
 -0.25175337660279840     
 -0.25118981232854953     
 -0.25057434233328224     
 -0.24989220002132395     
 -0.24912413122564867     
 -0.24819043482143105     
 -0.24744473540340406     
 -0.24450465992356663     
 -0.24512410930217726     
 -0.25408437660651484     
 -0.25040291536293058     
 -0.24968206198663259     
 -0.24989982016309906     
 -0.24984000692344790     
 -0.24978955875774259     
 -0.24972452197550374     
 -0.24963874915252784     
 -0.24953269490454574     
 -0.24941179375444694     
 -0.24925978791757122     
 -0.24907852085078169     
 -0.24884647545377767     
 -0.24854471996877497     
 -0.24814762573238566     
 -0.24762358456943517     
 -0.24693257601472299     
 -0.24601932600804766     
 -0.24504116821864605     
 -0.24245756181482553     
 -0.24342382460054637     
 -0.25357296247491790     
 -0.24974436033371666     
 -0.24896021869796872     
 -0.24914843107843884     
 -0.24886390946571985     
 -0.24860074216398889     
 -0.24832330632468266     
 -0.24802557142887380     
 -0.24770436949578686     
 -0.24734999954513917     
 -0.24695255055420287     
 -0.24649362897302463     
 -0.24594893208244542     
 -0.24529480843109522     
 -0.24449658732072874     
 -0.24351979980870395     
 -0.24233031334726943     
 -0.24088338039241336     
 -0.23930868734764485     
 -0.23616986315895208     
 -0.23604877355104054     
 -0.25273866015801233     
 -0.24965269620454153     
 -0.24864690768641765     
 -0.24874202879919519     
 -0.24834387188184667     
 -0.24799117533689916     
 -0.24761307523161416     
 -0.24720032625301719     
 -0.24673844964499111     
 -0.24620941636590338     
 -0.24559275456617241     
 -0.24486097131085030     
 -0.24398639544001585     
 -0.24293796319468960     
 -0.24168550615323967     
 -0.24019844953099848     
 -0.23844574587184753     
 -0.23638819131678412     
 -0.23411719645542092     
 -0.23033368306936525     
 -0.23024776155385049     
 -0.25148491515508720     
 -0.24920798191680615     
 -0.24778123591989237     
 -0.24774822985353620     
 -0.24724355623988939     
 -0.24675843252168778     
 -0.24621966133547354     
 -0.24560957135063233     
 -0.24490809324133553     
 -0.24409236635326889     
 -0.24313580559105602     
 -0.24201339077340067     
 -0.24069850658257089     
 -0.23916099969652072     
 -0.23737009055961669     
 -0.23529391634472527     
 -0.23290022244506403     
 -0.23015270970785964     
 -0.22711100667722692     
 -0.22260818718026820     
 -0.22230958486048938     
 -0.24994050204865459     
 -0.24859712342449514     
 -0.24674043759293704     
 -0.24654248191546468     
 -0.24585991804148583     
 -0.24514534121970713     
 -0.24433505912048767     
 -0.24340645035874908     
 -0.24234048414169901     
 -0.24111377699521883     
 -0.23970292379506183     
 -0.23808046345395986     
 -0.23621706587699282     
 -0.23408112785134555     
 -0.23164102459417416     
 -0.22886370172534923     
 -0.22571622886164613     
 -0.22216152261603148     
 -0.21823072936750115     
 -0.21289182092451081     
 -0.21237929432201236     
 -0.24818349817148683     
 -0.24765697593856073     
 -0.24533978137793361     
 -0.24485898633413367     
 -0.24387754415249602     
 -0.24281034571276980     
 -0.24160506339505883     
 -0.24024237614553348     
 -0.23870056592682923     
 -0.23695500281135723     
 -0.23497863936578883     
 -0.23274275027503058     
 -0.23021711096250747     
 -0.22736998686151932     
 -0.22416706963407665     
 -0.22057275969058679     
 -0.21655081020431471     
 -0.21205048611258737     
 -0.20708408177043411     
 -0.20084342055572360     
 -0.20014471078997298     
 -0.24611080073366207     
 -0.24609612860423169     
 -0.24329513879302347     
 -0.24238370521293687     
 -0.24097803496018480     
 -0.23944232630101522     
 -0.23772826266945915     
 -0.23581482656595398     
 -0.23367801694646029     
 -0.23129289483929405     
 -0.22863252861029615     
 -0.22566710504430659     
 -0.22236395008966453     
 -0.21868926943411693     
 -0.21460208297539254     
 -0.21005109557069468     
 -0.20504234609901437     
 -0.19959144898901141     
 -0.19370594242548683     
 -0.18666782441770371     
 -0.18583847801888689     
 -0.24337926839261423     
 -0.24356777929567688     
 -0.24027287541749989     
 -0.23878898862432446     
 -0.23683683894067670     
 -0.23470582573734286     
 -0.23235562093382783     
 -0.22976573484649493     
 -0.22691266495489676     
 -0.22376990043675574     
 -0.22030870384601237     
 -0.21649717356205406     
 -0.21228943673561046     
 -0.20765684014339411     
 -0.20262995824494581     
 -0.19719500827403394     
 -0.19133031068891310     
 -0.18501786974552073     
 -0.17827306366283169     
 -0.17049127798391364     
 -0.16963447580039567     
 -0.23957255309926306     
 -0.23972985498526297     
 -0.23591133533067019     
 -0.23371120270051063     
 -0.23107684191020814     
 -0.22822109944217342     
 -0.22511129880960901     
 -0.22172489743256021     
 -0.21803765687936277     
 -0.21401522510665580     
 -0.20961827180552645     
 -0.20486712204105159     
 -0.19977156685055364     
 -0.19431037685157918     
 -0.18846604923838198     
 -0.18222413099432849     
 -0.17557799451671899     
 -0.16841935405808750     
 -0.16079828542666863     
 -0.15238475395931303     
 -0.15158121371164102     
 -0.23424098425510037     
 -0.23421071687672776     
 -0.22980536487643874     
 -0.22675890070316934     
 -0.22331640965352356     
 -0.21961529043750319     
 -0.21562476122787264     
 -0.21130805550058049     
 -0.20666318426862643     
 -0.20172714421720994     
 -0.19648828983707070     
 -0.19093170673625673     
 -0.18504664843495452     
 -0.17883259018660072     
 -0.17225047004533811     
 -0.16518693096518416     
 -0.15778861546028308     
 -0.15006877516903838     
 -0.14200978695584199     
 -0.13328799730124855     
 -0.13252270485646681     
 -0.22693163195485980     
 -0.22664308672923614     
 -0.22156904181024134     
 -0.21756621185604894     
 -0.21318519171299535     
 -0.20849803480188023     
 -0.20354660237325026     
 -0.19834071529315411     
 -0.19286915800174023     
 -0.18712821881018268     
 -0.18112149351005127     
 -0.17484179237248870     
 -0.16818478419965818     
 -0.16121891422959725     
 -0.15401637840886651     
 -0.14656078380381837     
 -0.13882811919117080     
 -0.13076966890556499     
 -0.12241869997146809     
 -0.11347809619765319     
 -0.11277151426919543     
 -0.21722487324459952     
 -0.21669785205285591     
 -0.21082891496174019     
 -0.20576388901658338     
 -0.20042502029032960     
 -0.19486055767679605     
 -0.18906587857863988     
 -0.18304770135296522     
 -0.17681802697929191     
 -0.17031806038170338     
 -0.16351699304314038     
 -0.15656180119870838     
 -0.14945217525521748     
 -0.14216461182909390     
 -0.13467861973485815     
 -0.12698855892392627     
 -0.11911898635945284     
 -0.11078990239353347     
 -0.10208068319323492     
  -9.2912048761282034E-002
  -9.2233536693172635E-002
 -0.20476095143292980     
 -0.20405914300978703     
 -0.19745937606210304     
 -0.19147874801745302     
 -0.18527249690081155     
 -0.17888883815045553     
 -0.17230846829443461     
 -0.16543980699746810     
 -0.15845454772833334     
 -0.15138987191844633     
 -0.14422452437751176     
 -0.13696008082287778     
 -0.12959372683272991     
 -0.12215533819671887     
 -0.11453097181841460     
 -0.10663537926612596     
  -9.8517894489549548E-002
  -9.0184422789226171E-002
  -8.1426561568815004E-002
  -7.2202806746541601E-002
  -7.1579653324189516E-002
 -0.18979980973204533     
 -0.18896883113848700     
 -0.18169682921133196     
 -0.17486416605557165     
 -0.16777226143115201     
 -0.16053341253294257     
 -0.15325574000993655     
 -0.14593520425156806     
 -0.13857255969717869     
 -0.13118028895048378     
 -0.12380425451535697     
 -0.11640355019982536     
 -0.10881297736167099     
 -0.10116290071024957     
  -9.3469867253838920E-002
  -8.5682014617267072E-002
  -7.7660902719947703E-002
  -6.9375565249142943E-002
  -6.0795770419415661E-002
  -5.1771442964014355E-002
  -5.1276903156498840E-002
 -0.17246426824462652     
 -0.17158526830365411     
 -0.16353026959386846     
 -0.15585867985898083     
 -0.14818174955180805     
 -0.14048815230995076     
 -0.13279345128641198     
 -0.12516292851261868     
 -0.11760940420371550     
 -0.10991496470463416     
 -0.10227026905276211     
  -9.4707162132753223E-002
  -8.7185066750040965E-002
  -7.9574201997304486E-002
  -7.1976745703540124E-002
  -6.4439728541716923E-002
  -5.6818843211475435E-002
  -4.8905992908726124E-002
  -4.0626171647370875E-002
  -3.2047291572216412E-002
  -3.1758200586905018E-002
 -0.15270615082805680     
 -0.15191964013377338     
 -0.14347567878993411     
 -0.13532216975080219     
 -0.12723191490674404     
 -0.11926090787881548     
 -0.11118044350566915     
 -0.10316602881265123     
  -9.5314953443196959E-002
  -8.7613507684996303E-002
  -7.9931052572679531E-002
  -7.2385867349339370E-002
  -6.4970351126390019E-002
  -5.7605748239531698E-002
  -5.0255473503588659E-002
  -4.3261207156522090E-002
  -3.6314068948419043E-002
  -2.9041701329024876E-002
  -2.1098257811370591E-002
  -1.3818751634806394E-002
  -1.3937952810001604E-002
 -0.13158508220555437     
 -0.13084358024494858     
 -0.12213348274354174     
 -0.11359209228803287     
 -0.10503134734869869     
  -9.6622168781567402E-002
  -8.8399456481665778E-002
  -8.0188459196020120E-002
  -7.2199073336353614E-002
  -6.4496235933678328E-002
  -5.7034116292006873E-002
  -4.9733229991149236E-002
  -4.2523195524248512E-002
  -3.5343058215389363E-002
  -2.7948929802761684E-002
  -2.2085242285599924E-002
  -1.6503356356340065E-002
  -1.0314803139963098E-002
   9.0447746342712935E-004
   5.5068561949659799E-004
   3.9317913648601092E-006
 -0.10932407670399771     
 -0.10857737735688353     
  -9.9435286731737821E-002
  -9.0586053712602713E-002
  -8.1755245431746462E-002
  -7.3074719999207255E-002
  -6.4648647119350588E-002
  -5.6465160278707863E-002
  -4.8506891954855615E-002
  -4.0925976877396110E-002
  -3.3791216146484816E-002
  -2.6965865463064894E-002
  -1.9123289929052666E-002
  -1.1354531177019806E-002
   4.4672829220281405E-004
   1.7729705355848172E-003
   3.0696492554102509E-003
   4.1750553068519262E-003
   6.1505502347306909E-003
   4.6400402439859597E-003
   1.5912289124728838E-003
  -8.5680450545511183E-002
  -8.4972669049199048E-002
  -7.5568360305809407E-002
  -6.6454162451649298E-002
  -5.7581361701832486E-002
  -4.8805409678878968E-002
  -4.0320113480623913E-002
  -3.2159645921398382E-002
  -2.4303353771851121E-002
  -1.6976921338933033E-002
  -1.0356298758954106E-002
  -4.8979531287919381E-003
   5.4042461484109236E-006
   6.5579877763735021E-004
   1.8031930692440730E-003
   3.4398424811320455E-003
   5.1745636495479329E-003
   6.6547234744921387E-003
   8.2989620743999515E-003
   8.3374053457597932E-003
   5.2855731585708795E-003
  -7.7641994211739007E-002
  -7.4457738699864537E-002
  -6.5036432010611586E-002
  -5.5920495881420368E-002
  -4.6934018928572047E-002
  -3.8188993474116521E-002
  -2.9719124084554200E-002
  -2.1550816028151280E-002
  -1.3783520068039203E-002
  -6.6177917838076833E-003
  -6.6484580984749024E-004
   1.0525944140499173E-004
   2.0151905530812540E-004
   7.7748917358098349E-004
   2.3428129371536434E-003
   3.6526365723407251E-003
   4.5206657898900805E-003
   5.2815118520017721E-003
   6.1026782923091303E-003
   6.8606801300260785E-003
   7.0817640541199767E-003
 -0.25073053542270463     
 -0.24892039858019380     
 -0.24890981566920189     
 -0.24887310645060404     
 -0.24875273453978866     
 -0.24857763870197419     
 -0.24834820348910774     
 -0.24806093475239699     
 -0.24772674720562304     
 -0.24733785241780240     
 -0.24690220946707878     
 -0.24642551411935354     
 -0.24590591402705345     
 -0.24534098703950430     
 -0.24472391448651859     
 -0.24403995931511141     
 -0.24326992862393379     
 -0.24233430258985963     
 -0.24158599616375051     
 -0.23864260502987888     
 -0.23932610508261679     
 -0.24824398827333188     
 -0.24462977360372296     
 -0.24390803204615566     
 -0.24412619870721003     
 -0.24406628332574593     
 -0.24401549310145382     
 -0.24394991076444167     
 -0.24386340790261618     
 -0.24375646159088069     
 -0.24363452146227391     
 -0.24348136753157515     
 -0.24329884243114705     
 -0.24306544379011444     
 -0.24276222763667293     
 -0.24236355049058622     
 -0.24183783172592341     
 -0.24114504397658115     
 -0.24022990565207153     
 -0.23924915130746863     
 -0.23666265918958418     
 -0.23769126309286515     
 -0.24773798955229920     
 -0.24397645299384299     
 -0.24319217098525600     
 -0.24338056447920520     
 -0.24309555884053166     
 -0.24283164325753634     
 -0.24255325360147614     
 -0.24225437596410027     
 -0.24193186567448466     
 -0.24157604525543039     
 -0.24117701158124846     
 -0.24071637028453541     
 -0.24016984421722981     
 -0.23951381012576572     
 -0.23871354544063972     
 -0.23773451857833877     
 -0.23654254196460378     
 -0.23509290032437169     
 -0.23351467116769473     
 -0.23037251734107916     
 -0.23031432809203278     
 -0.24690500885154010     
 -0.24388370755144370     
 -0.24287825462023929     
 -0.24297269936187357     
 -0.24257344529951030     
 -0.24221943956478620     
 -0.24183991401623217     
 -0.24142562822394409     
 -0.24096211041296373     
 -0.24043133814290346     
 -0.23981287805518253     
 -0.23907921046940611     
 -0.23820258387224469     
 -0.23715186478536232     
 -0.23589682582044627     
 -0.23440685862798061     
 -0.23265088703950307     
 -0.23058973574612510     
 -0.22831421985084763     
 -0.22452687270259100     
 -0.22450181653679679     
 -0.24565047864631845     
 -0.24343625575358946     
 -0.24201010707057813     
 -0.24197570937014579     
 -0.24146961700809136     
 -0.24098291022342661     
 -0.24044247039094818     
 -0.23983064132801618     
 -0.23912736708419288     
 -0.23830971042187604     
 -0.23735101231628009     
 -0.23622618173559082     
 -0.23490855551923376     
 -0.23336795093141227     
 -0.23157355756485867     
 -0.22949348527415417     
 -0.22709545922947630     
 -0.22434321008260888     
 -0.22129583287768612     
 -0.21678858319060917     
 -0.21654747505997943     
 -0.24410315220677090     
 -0.24282196980178861     
 -0.24096582723552901     
 -0.24076601767947267     
 -0.24008182371367034     
 -0.23936548810913777     
 -0.23855336561588575     
 -0.23762274401750563     
 -0.23655451212914569     
 -0.23532522877181666     
 -0.23391144931418681     
 -0.23228568098297650     
 -0.23041856319354315     
 -0.22827847075654706     
 -0.22583376273875894     
 -0.22305138491352111     
 -0.21989843250804997     
 -0.21633787855137179     
 -0.21240042703978929     
 -0.20705697755041075     
 -0.20659766136117633     
 -0.24234164743721850     
 -0.24187801620559604     
 -0.23956088954025462     
 -0.23907801122564185     
 -0.23809474229271266     
 -0.23702540576641537     
 -0.23581770323394910     
 -0.23445225774400263     
 -0.23290731622619476     
 -0.23115821610662382     
 -0.22917788334778041     
 -0.22693757425879185     
 -0.22440705739244030     
 -0.22155461264873577     
 -0.21834596622490191     
 -0.21474553840864205     
 -0.21071724849509518     
 -0.20621061281115347     
 -0.20123623058688875     
 -0.19498933128809423     
 -0.19433832565341402     
 -0.24026369627727509     
 -0.24031286789612219     
 -0.23751121695282509     
 -0.23659722989602414     
 -0.23518904838656848     
 -0.23365037749591280     
 -0.23193296474057154     
 -0.23001575316390932     
 -0.22787472052585603     
 -0.22548491427498576     
 -0.22281940625261260     
 -0.21984841666756472     
 -0.21653929438686093     
 -0.21285829773546514     
 -0.20876476206304792     
 -0.20420710547965587     
 -0.19919007138034966     
 -0.19373064760683201     
 -0.18783625432806211     
 -0.18079218943659783     
 -0.18000396434438282     
 -0.23752635015212384     
 -0.23777881310169457     
 -0.23448214483312932     
 -0.23299486508335535     
 -0.23103920753122759     
 -0.22890417487710141     
 -0.22654949714073172     
 -0.22395467223932292     
 -0.22109621917770464     
 -0.21794765848350905     
 -0.21448027476670103     
 -0.21066237377022790     
 -0.20644824970873232     
 -0.20180804458124585     
 -0.19677271663266979     
 -0.19132925108882404     
 -0.18545594586928818     
 -0.17913487354582658     
 -0.17238117406418588     
 -0.16459519879487300     
 -0.16377317594158222     
 -0.23371264758707444     
 -0.23393263911516421     
 -0.23011119224455873     
 -0.22790662483808818     
 -0.22526760343272936     
 -0.22240669042409272     
 -0.21929129380639012     
 -0.21589888916626998     
 -0.21220533299582434     
 -0.20817658121063237     
 -0.20377277363437715     
 -0.19901328156609879     
 -0.19390924236066939     
 -0.18843954686891093     
 -0.18258666011113872     
 -0.17633604232757674     
 -0.16968160719147329     
 -0.16251634164157869     
 -0.15488623876213589     
 -0.14646667596422880     
 -0.14569082956119650     
 -0.22837239746903809     
 -0.22840215760427732     
 -0.22399282276480714     
 -0.22094084800444844     
 -0.21749261484583574     
 -0.21378533633870608     
 -0.20978853868253700     
 -0.20546543772569578     
 -0.20081265917282845     
 -0.19586818706128881     
 -0.19062087430486038     
 -0.18505571587853192     
 -0.17916204817695466     
 -0.17293941945968319     
 -0.16635001265372412     
 -0.15927874700676384     
 -0.15187181342614650     
 -0.14414355281372479     
 -0.13607633575732159     
 -0.12734952016039841     
 -0.12660543352835366     
 -0.22105261433115214     
 -0.22082008294989516     
 -0.21574130805340863     
 -0.21173217702516137     
 -0.20734501409045000     
 -0.20265077411135118     
 -0.19769100297514297     
 -0.19247669014309368     
 -0.18699663460052837     
 -0.18124710954837464     
 -0.17523165501028209     
 -0.16894388804238847     
 -0.16228019217993933     
 -0.15530559191851512     
 -0.14809458728514241     
 -0.14063107294911287     
 -0.13289069773459522     
 -0.12482465353307384     
 -0.11646579328293936     
 -0.10752159608431770     
 -0.10683055188671942     
 -0.21133407694171161     
 -0.21085822411529376     
 -0.20498455434756929     
 -0.19991152189494119     
 -0.19456434402935016     
 -0.18899152112873621     
 -0.18318829963836752     
 -0.17716138788311905     
 -0.17092331803605906     
 -0.16441679124569505     
 -0.15760706973308908     
 -0.15064321899764310     
 -0.14352546505694330     
 -0.13623010161073834     
 -0.12873682306244874     
 -0.12103938942878803     
 -0.11316270659834843     
 -0.10482798782868957     
  -9.6112935041285097E-002
  -8.6940582919586520E-002
  -8.6272004177834385E-002
 -0.19885651204947680     
 -0.19820007408634016     
 -0.19159366478897091     
 -0.18560462819881707     
 -0.17938982568791562     
 -0.17299757023934284     
 -0.16640980569247873     
 -0.15953343265574280     
 -0.15253935750506395     
 -0.14546628755034860     
 -0.13829310527928118     
 -0.13102118957402825     
 -0.12364735018680234     
 -0.11620163427176596     
 -0.10857190046372567     
 -0.10067044323170463     
  -9.2547340114980128E-002
  -8.4208267836562864E-002
  -7.5446384413372966E-002
  -6.6220465519222338E-002
  -6.5603488799246171E-002
 -0.18388042582704800     
 -0.18308806499985969     
 -0.17580908426303449     