# vtk DataFile Version 2.0
3D Unstructured Grid of Linear Triangles
ASCII
DATASET UNSTRUCTURED_GRID
FIELD FieldData  1
TIME 1 1 double
        3606.13669
POINTS     7056 float
      0.00000000E+00  1.00000000E+01  1.00000000E+00
      5.00000000E-01  1.00000000E+01  9.93333333E-01
      1.00000000E+00  1.00000000E+01  9.83333333E-01
      1.50000000E+00  1.00000000E+01  9.73333333E-01
      2.00000000E+00  1.00000000E+01  9.63333333E-01
      2.50000000E+00  1.00000000E+01  9.53333333E-01
      3.00000000E+00  1.00000000E+01  9.43333333E-01
      3.50000000E+00  1.00000000E+01  9.33333333E-01
      4.00000000E+00  1.00000000E+01  9.23333333E-01
      4.50000000E+00  1.00000000E+01  9.13333333E-01
      5.00000000E+00  1.00000000E+01  9.03333333E-01
      5.50000000E+00  1.00000000E+01  8.93333333E-01
      6.00000000E+00  1.00000000E+01  8.83333333E-01
      6.50000000E+00  1.00000000E+01  8.73333333E-01
      7.00000000E+00  1.00000000E+01  8.63333333E-01
      7.50000000E+00  1.00000000E+01  8.53333333E-01
      8.00000000E+00  1.00000000E+01  8.43333333E-01
      8.50000000E+00  1.00000000E+01  8.33333333E-01
      9.00000000E+00  1.00000000E+01  8.23333333E-01
      9.50000000E+00  1.00000000E+01  8.13333333E-01
      1.00000000E+01  1.00000000E+01  8.10000000E-01
      0.00000000E+00  9.50000000E+00  9.83333333E-01
      5.00000000E-01  9.50000000E+00  9.82500000E-01
      1.00000000E+00  9.50000000E+00  9.72500000E-01
      1.50000000E+00  9.50000000E+00  9.62500000E-01
      2.00000000E+00  9.50000000E+00  9.52500000E-01
      2.50000000E+00  9.50000000E+00  9.42500000E-01
      3.00000000E+00  9.50000000E+00  9.32500000E-01
      3.50000000E+00  9.50000000E+00  9.22500000E-01
      4.00000000E+00  9.50000000E+00  9.12500000E-01
      4.50000000E+00  9.50000000E+00  9.02500000E-01
      5.00000000E+00  9.50000000E+00  8.92500000E-01
      5.50000000E+00  9.50000000E+00  8.82500000E-01
      6.00000000E+00  9.50000000E+00  8.72500000E-01
      6.50000000E+00  9.50000000E+00  8.62500000E-01
      7.00000000E+00  9.50000000E+00  8.52500000E-01
      7.50000000E+00  9.50000000E+00  8.42500000E-01
      8.00000000E+00  9.50000000E+00  8.32500000E-01
      8.50000000E+00  9.50000000E+00  8.22500000E-01
      9.00000000E+00  9.50000000E+00  8.12500000E-01
      9.50000000E+00  9.50000000E+00  8.02500000E-01
      1.00000000E+01  9.50000000E+00  8.01666667E-01
      0.00000000E+00  9.00000000E+00  9.58333333E-01
      5.00000000E-01  9.00000000E+00  9.57500000E-01
      1.00000000E+00  9.00000000E+00  9.47500000E-01
      1.50000000E+00  9.00000000E+00  9.37500000E-01
      2.00000000E+00  9.00000000E+00  9.27500000E-01
      2.50000000E+00  9.00000000E+00  9.17500000E-01
      3.00000000E+00  9.00000000E+00  9.07500000E-01
      3.50000000E+00  9.00000000E+00  8.97500000E-01
      4.00000000E+00  9.00000000E+00  8.87500000E-01
      4.50000000E+00  9.00000000E+00  8.77500000E-01
      5.00000000E+00  9.00000000E+00  8.67500000E-01
      5.50000000E+00  9.00000000E+00  8.57500000E-01
      6.00000000E+00  9.00000000E+00  8.47500000E-01
      6.50000000E+00  9.00000000E+00  8.37500000E-01
      7.00000000E+00  9.00000000E+00  8.27500000E-01
      7.50000000E+00  9.00000000E+00  8.17500000E-01
      8.00000000E+00  9.00000000E+00  8.07500000E-01
      8.50000000E+00  9.00000000E+00  7.97500000E-01
      9.00000000E+00  9.00000000E+00  7.87500000E-01
      9.50000000E+00  9.00000000E+00  7.77500000E-01
      1.00000000E+01  9.00000000E+00  7.76666667E-01
      0.00000000E+00  8.50000000E+00  9.33333333E-01
      5.00000000E-01  8.50000000E+00  9.32500000E-01
      1.00000000E+00  8.50000000E+00  9.22500000E-01
      1.50000000E+00  8.50000000E+00  9.12500000E-01
      2.00000000E+00  8.50000000E+00  9.02500000E-01
      2.50000000E+00  8.50000000E+00  8.92500000E-01
      3.00000000E+00  8.50000000E+00  8.82500000E-01
      3.50000000E+00  8.50000000E+00  8.72500000E-01
      4.00000000E+00  8.50000000E+00  8.62500000E-01
      4.50000000E+00  8.50000000E+00  8.52500000E-01
      5.00000000E+00  8.50000000E+00  8.42500000E-01
      5.50000000E+00  8.50000000E+00  8.32500000E-01
      6.00000000E+00  8.50000000E+00  8.22500000E-01
      6.50000000E+00  8.50000000E+00  8.12500000E-01
      7.00000000E+00  8.50000000E+00  8.02500000E-01
      7.50000000E+00  8.50000000E+00  7.92500000E-01
      8.00000000E+00  8.50000000E+00  7.82500000E-01
      8.50000000E+00  8.50000000E+00  7.72500000E-01
      9.00000000E+00  8.50000000E+00  7.62500000E-01
      9.50000000E+00  8.50000000E+00  7.52500000E-01
      1.00000000E+01  8.50000000E+00  7.51666667E-01
      0.00000000E+00  8.00000000E+00  9.08333333E-01
      5.00000000E-01  8.00000000E+00  9.07500000E-01
      1.00000000E+00  8.00000000E+00  8.97500000E-01
      1.50000000E+00  8.00000000E+00  8.87500000E-01
      2.00000000E+00  8.00000000E+00  8.77500000E-01
      2.50000000E+00  8.00000000E+00  8.67500000E-01
      3.00000000E+00  8.00000000E+00  8.57500000E-01
      3.50000000E+00  8.00000000E+00  8.47500000E-01
      4.00000000E+00  8.00000000E+00  8.37500000E-01
      4.50000000E+00  8.00000000E+00  8.27500000E-01
      5.00000000E+00  8.00000000E+00  8.17500000E-01
      5.50000000E+00  8.00000000E+00  8.07500000E-01
      6.00000000E+00  8.00000000E+00  7.97500000E-01
      6.50000000E+00  8.00000000E+00  7.87500000E-01
      7.00000000E+00  8.00000000E+00  7.77500000E-01
      7.50000000E+00  8.00000000E+00  7.67500000E-01
      8.00000000E+00  8.00000000E+00  7.57500000E-01
      8.50000000E+00  8.00000000E+00  7.47500000E-01
      9.00000000E+00  8.00000000E+00  7.37500000E-01
      9.50000000E+00  8.00000000E+00  7.27500000E-01
      1.00000000E+01  8.00000000E+00  7.26666667E-01
      0.00000000E+00  7.50000000E+00  8.83333333E-01
      5.00000000E-01  7.50000000E+00  8.82500000E-01
      1.00000000E+00  7.50000000E+00  8.72500000E-01
      1.50000000E+00  7.50000000E+00  8.62500000E-01
      2.00000000E+00  7.50000000E+00  8.52500000E-01
      2.50000000E+00  7.50000000E+00  8.42500000E-01
      3.00000000E+00  7.50000000E+00  8.32500000E-01
      3.50000000E+00  7.50000000E+00  8.22500000E-01
      4.00000000E+00  7.50000000E+00  8.12500000E-01
      4.50000000E+00  7.50000000E+00  8.02500000E-01
      5.00000000E+00  7.50000000E+00  7.92500000E-01
      5.50000000E+00  7.50000000E+00  7.82500000E-01
      6.00000000E+00  7.50000000E+00  7.72500000E-01
      6.50000000E+00  7.50000000E+00  7.62500000E-01
      7.00000000E+00  7.50000000E+00  7.52500000E-01
      7.50000000E+00  7.50000000E+00  7.42500000E-01
      8.00000000E+00  7.50000000E+00  7.32500000E-01
      8.50000000E+00  7.50000000E+00  7.22500000E-01
      9.00000000E+00  7.50000000E+00  7.12500000E-01
      9.50000000E+00  7.50000000E+00  7.02500000E-01
      1.00000000E+01  7.50000000E+00  7.01666667E-01
      0.00000000E+00  7.00000000E+00  8.58333333E-01
      5.00000000E-01  7.00000000E+00  8.57500000E-01
      1.00000000E+00  7.00000000E+00  8.47500000E-01
      1.50000000E+00  7.00000000E+00  8.37500000E-01
      2.00000000E+00  7.00000000E+00  8.27500000E-01
      2.50000000E+00  7.00000000E+00  8.17500000E-01
      3.00000000E+00  7.00000000E+00  8.07500000E-01
      3.50000000E+00  7.00000000E+00  7.97500000E-01
      4.00000000E+00  7.00000000E+00  7.87500000E-01
      4.50000000E+00  7.00000000E+00  7.77500000E-01
      5.00000000E+00  7.00000000E+00  7.67500000E-01
      5.50000000E+00  7.00000000E+00  7.57500000E-01
      6.00000000E+00  7.00000000E+00  7.47500000E-01
      6.50000000E+00  7.00000000E+00  7.37500000E-01
      7.00000000E+00  7.00000000E+00  7.27500000E-01
      7.50000000E+00  7.00000000E+00  7.17500000E-01
      8.00000000E+00  7.00000000E+00  7.07500000E-01
      8.50000000E+00  7.00000000E+00  6.97500000E-01
      9.00000000E+00  7.00000000E+00  6.87500000E-01
      9.50000000E+00  7.00000000E+00  6.77500000E-01
      1.00000000E+01  7.00000000E+00  6.76666667E-01
      0.00000000E+00  6.50000000E+00  8.33333333E-01
      5.00000000E-01  6.50000000E+00  8.32500000E-01
      1.00000000E+00  6.50000000E+00  8.22500000E-01
      1.50000000E+00  6.50000000E+00  8.12500000E-01
      2.00000000E+00  6.50000000E+00  8.02500000E-01
      2.50000000E+00  6.50000000E+00  7.92500000E-01
      3.00000000E+00  6.50000000E+00  7.82500000E-01
      3.50000000E+00  6.50000000E+00  7.72500000E-01
      4.00000000E+00  6.50000000E+00  7.62500000E-01
      4.50000000E+00  6.50000000E+00  7.52500000E-01
      5.00000000E+00  6.50000000E+00  7.42500000E-01
      5.50000000E+00  6.50000000E+00  7.32500000E-01
      6.00000000E+00  6.50000000E+00  7.22500000E-01
      6.50000000E+00  6.50000000E+00  7.12500000E-01
      7.00000000E+00  6.50000000E+00  7.02500000E-01
      7.50000000E+00  6.50000000E+00  6.92500000E-01
      8.00000000E+00  6.50000000E+00  6.82500000E-01
      8.50000000E+00  6.50000000E+00  6.72500000E-01
      9.00000000E+00  6.50000000E+00  6.62500000E-01
      9.50000000E+00  6.50000000E+00  6.52500000E-01
      1.00000000E+01  6.50000000E+00  6.51666667E-01
      0.00000000E+00  6.00000000E+00  8.08333333E-01
      5.00000000E-01  6.00000000E+00  8.07500000E-01
      1.00000000E+00  6.00000000E+00  7.97500000E-01
      1.50000000E+00  6.00000000E+00  7.87500000E-01
      2.00000000E+00  6.00000000E+00  7.77500000E-01
      2.50000000E+00  6.00000000E+00  7.67500000E-01
      3.00000000E+00  6.00000000E+00  7.57500000E-01
      3.50000000E+00  6.00000000E+00  7.47500000E-01
      4.00000000E+00  6.00000000E+00  7.37500000E-01
      4.50000000E+00  6.00000000E+00  7.27500000E-01
      5.00000000E+00  6.00000000E+00  7.17500000E-01
      5.50000000E+00  6.00000000E+00  7.07500000E-01
      6.00000000E+00  6.00000000E+00  6.97500000E-01
      6.50000000E+00  6.00000000E+00  6.87500000E-01
      7.00000000E+00  6.00000000E+00  6.77500000E-01
      7.50000000E+00  6.00000000E+00  6.67500000E-01
      8.00000000E+00  6.00000000E+00  6.57500000E-01
[...]
POINT_DATA     7056
SCALARS pressure float
LOOKUP_TABLE default
 -0.13120111441637680     
 -0.13028962691512963     
 -0.12999663415668961     
 -0.12980836125524781     
 -0.12960919548783018     
 -0.12942141829102635     
 -0.12922804916269498     
 -0.12902812227874083     
 -0.12883211242058196     
 -0.12860652005669970     
 -0.12835862777121923     
 -0.12807911947570197     
 -0.12774451133805290     
 -0.12733809049813036     
 -0.12682878881293544     
 -0.12616965859391868     
 -0.12530832268731815     
 -0.12415122305645085     
 -0.12284120602462907     
 -0.11950681110536449     
 -0.11894571288282536     
 -0.12961869273854232     
 -0.12910267440848139     
 -0.12797021391857991     
 -0.12796339712016383     
 -0.12775823163886069     
 -0.12756017860921237     
 -0.12735445963807962     
 -0.12714272884704447     
 -0.12690273161436968     
 -0.12664918270265721     
 -0.12635538455902862     
 -0.12602017136366481     
 -0.12561615525064368     
 -0.12512204859096390     
 -0.12449747435203437     
 -0.12369756101994848     
 -0.12265730281586176     
 -0.12128917386839456     
 -0.11959835692818564     
 -0.11608361857868942     
 -0.11623701666894393     
 -0.12840862490481644     
 -0.12752706203673789     
 -0.12594427550003617     
 -0.12574828940697638     
 -0.12526073508852748     
 -0.12480679586625802     
 -0.12434904947146888     
 -0.12388134497809698     
 -0.12339174759078440     
 -0.12287190251552907     
 -0.12230190433180776     
 -0.12166244924882792     
 -0.12092490617826583     
 -0.12005977173803971     
 -0.11901824780929011     
 -0.11774070151415879     
 -0.11614229568702449     
 -0.11411697738079991     
 -0.11162132362028536     
 -0.10731885503065997     
 -0.10684398175692497     
 -0.12717623444715723     
 -0.12667183599869880     
 -0.12476647387537673     
 -0.12429461727538306     
 -0.12353854389083491     
 -0.12281636280042915     
 -0.12208524245802145     
 -0.12133872122939375     
 -0.12056475420968439     
 -0.11974397775168882     
 -0.11885958603526604     
 -0.11787992344492536     
 -0.11676713750080010     
 -0.11547081172406119     
 -0.11392784728703766     
 -0.11206038331986948     
 -0.10976601160278461     
 -0.10691188298205935     
 -0.10337117682517530     
  -9.8042678378138626E-002
  -9.7625502377022999E-002
 -0.12561332466110617     
 -0.12532640709900209     
 -0.12301073148109860     
 -0.12219717477699087     
 -0.12114028983724144     
 -0.12011338373654319     
 -0.11908036396366932     
 -0.11803214805445594     
 -0.11694869730150959     
 -0.11580381019676196     
 -0.11456382640947574     
 -0.11319028629996232     
 -0.11163161757817337     
 -0.10982516759609856     
 -0.10768564347008922     
 -0.10510052854233955     
 -0.10192875912953613     
  -9.8109275386915093E-002
  -9.3660256733984287E-002
  -8.7715872006471449E-002
  -8.7264169913858353E-002
 -0.12369973217958724     
 -0.12362646926114608     
 -0.12089612888998247     
 -0.11970429199280098     
 -0.11831664899821784     
 -0.11695600316336149     
 -0.11558900763429410     
 -0.11419019803738775     
 -0.11273366858750702     
 -0.11118703868002905     
 -0.10950773338425315     
 -0.10764091070203526     
 -0.10551386045958305     
 -0.10303244278679076     
 -0.10011351913732235     
  -9.6752405921356102E-002
  -9.2883981753326045E-002
  -8.8402200821108112E-002
  -8.3016753983796029E-002
  -7.5878706606383725E-002
  -7.5380610098807532E-002
 -0.12139278588372036     
 -0.12150845087551987     
 -0.11837169231979219     
 -0.11677436304226979     
 -0.11501520566189896     
 -0.11326505042694367     
 -0.11149039033821846     
 -0.10966159299481501     
 -0.10774211063387765     
 -0.10568438704848056     
 -0.10342461557004647     
 -0.10090032922849783     
  -9.8102768784930600E-002
  -9.5010597133385249E-002
  -9.1546768417190380E-002
  -8.7615944093316564E-002
  -8.2939239586958230E-002
  -7.7331610140130153E-002
  -7.1049490556915701E-002
  -6.3727207755617576E-002
  -6.3302960484064502E-002
 -0.11868519783577972     
 -0.11891791696585030     
 -0.11538761345965426     
 -0.11331551060848222     
 -0.11110142128192907     
 -0.10887306264507284     
 -0.10658700371381036     
 -0.10419861324555488     
 -0.10165969034796049     
  -9.8962685501026049E-002
  -9.6129696292623940E-002
  -9.3113166810480749E-002
  -8.9850010294757754E-002
  -8.6233755427190514E-002
  -8.1982988260597980E-002
  -7.7113115232076340E-002
  -7.1744042494079299E-002
  -6.5822670873208339E-002
  -5.9459220661195758E-002
  -5.1352428801993311E-002
  -5.0866103728754539E-002
 -0.11551166507807333     
 -0.11575252718535056     
 -0.11178879856459030     
 -0.10913989801749358     
 -0.10635031091577757     
 -0.10349054341715315     
 -0.10052513123743718     
  -9.7507553494829938E-002
  -9.4451840573411494E-002
  -9.1312802697902082E-002
  -8.8032320913832202E-002
  -8.4467653713930640E-002
  -8.0399817149475292E-002
  -7.6015971045653719E-002
  -7.1305465877161245E-002
  -6.6217331451836642E-002
  -6.0809144633896230E-002
  -5.4412943514998556E-002
  -4.7115523160603086E-002
  -3.8971585514610628E-002
  -3.8568895799638056E-002
 -0.11166867871727058     
 -0.11182657129848243     
 -0.10733274813282362     
 -0.10393317289270392     
 -0.10037780393974666     
  -9.6849559146141337E-002
  -9.3368137966532899E-002
  -8.9896261744709285E-002
  -8.6362771486602458E-002
  -8.2564129346187495E-002
  -7.8500313397057569E-002
  -7.4337635021954090E-002
  -7.0011784174024455E-002
  -6.5493463139321667E-002
  -6.0807706106098904E-002
  -5.5403347247891060E-002
  -4.9300237900979677E-002
  -4.2628324440871619E-002
  -3.5603626599160422E-002
  -2.7267099473808665E-002
  -2.6875777490313005E-002
 -0.10680211109787789     
 -0.10683772243157520     
 -0.10160171660669068     
  -9.7379562729303079E-002
  -9.3242081688498304E-002
  -8.9207885168078122E-002
  -8.5174151183583666E-002
  -8.0907491067190515E-002
  -7.6634098165778486E-002
  -7.2410652991783162E-002
  -6.8185654907928800E-002
  -6.3967918533974266E-002
  -5.9730514062416896E-002
  -5.4859390369358038E-002
  -4.9630858116890851E-002
  -4.4050278083927315E-002
  -3.8132326180620450E-002
  -3.1612656184339304E-002
  -2.4227081186321012E-002
  -1.6295063240205684E-002
  -1.6091483349780285E-002
 -0.10041531819616306     
 -0.10031720160224862     
  -9.4518337062845847E-002
  -8.9680491750458807E-002
  -8.4906392446027268E-002
  -7.9960283286469383E-002
  -7.5187246718403516E-002
  -7.0609528259905852E-002
  -6.6207113628133127E-002
  -6.2008287523397959E-002
  -5.7774155208030399E-002
  -5.3153737969133315E-002
  -4.8457928068498662E-002
  -4.3599705668516203E-002
  -3.8616834230349943E-002
  -3.3373524429580123E-002
  -2.7438670188993611E-002
  -2.0861467136941970E-002
  -1.3517260129118462E-002
  -5.9971825174870404E-003
  -6.0271459570741979E-003
  -9.2661687803867895E-002
  -9.2426403730404588E-002
  -8.6104680854102028E-002
  -8.0221875795640482E-002
  -7.4604229508313816E-002
  -6.9342721743574032E-002
  -6.4467553481224973E-002
  -5.9989943966522907E-002
  -5.5318647513996025E-002
  -5.0711178449276403E-002
  -4.6200912635327926E-002
  -4.1737605842102628E-002
  -3.7388945074569684E-002
  -3.2861639429259862E-002
  -2.7973715638880129E-002
  -2.2745265951017425E-002
  -1.7267778736538720E-002
  -1.0575017115668705E-002
   1.2157900072903810E-004
   5.6740520333864539E-004
   4.6666655750137451E-004
  -8.3077893317078821E-002
  -8.2756779995805760E-002
  -7.5491393363380316E-002
  -6.9138498086971312E-002
  -6.3397341066850035E-002
  -5.8185840072739893E-002
  -5.2912769474402641E-002
  -4.7983367350025223E-002
  -4.3306977822028983E-002
  -3.8957083359606189E-002
  -3.4902121755073394E-002
  -3.0654819980468841E-002
  -2.6376357229077625E-002
  -2.2014637288647512E-002
  -1.7657595065362550E-002
  -1.2728331182641248E-002
  -7.8216343423095584E-003
   1.1506242715563934E-004
   8.8872855177545246E-004
   1.5084247721112558E-003
   1.6215460018911808E-003
  -7.1333524894205316E-002
  -7.0971471691055305E-002
  -6.3608117929386906E-002
  -5.7208004519708498E-002
  -5.0995882682822721E-002
  -4.5336186751406209E-002
  -4.0266316693464060E-002
  -3.5843596017083548E-002
  -3.1393278410179033E-002
  -2.7138396899103381E-002
  -2.3215311699679629E-002
  -1.9493892744294899E-002
  -1.5756753358832004E-002
  -1.1657255077546148E-002
  -7.8026249875131218E-003
  -1.2735315806788057E-003
   3.4789666141603202E-004
   8.8103176799079282E-004
   1.9049286961995795E-003
   2.4875473101426781E-003
   2.2591502789508344E-003
  -5.8490659359929059E-002
  -5.8190776719193787E-002
  -5.0307823325628241E-002
  -4.3448852702773683E-002
  -3.7539609493147032E-002
  -3.2201491068163446E-002
  -2.7395243656669305E-002
  -2.3098388374121284E-002
  -1.9103484024339829E-002
  -1.5026722284730712E-002
  -1.1862329936725671E-002
  -8.9487333665535570E-003
  -5.7521605573233473E-003
   1.1565004224505494E-004
   4.4815861022283612E-004
   7.9987709370067715E-004
   1.2918220973206628E-003
   2.0299472349043397E-003
   3.0615815055783594E-003
   3.2869686306693244E-003
   2.7900328842634810E-003
  -4.3334602476889764E-002
  -4.3097206744681517E-002
  -3.5696402896295748E-002
  -2.9135061352606958E-002
  -2.3383956548778947E-002
  -1.8077764043632542E-002
  -1.4119001777542073E-002
  -1.0639243817682290E-002
  -7.2051682291489356E-003
   1.8240385130960246E-005
   2.8383815551112938E-004
   5.6760300746071409E-004
   8.3045832653624223E-004
   1.1479371485854446E-003
   1.6215138756773895E-003
   2.1462591844074092E-003
   2.6750310452678108E-003
   3.2386995343134935E-003
   4.2034218072091430E-003
   4.1154752543224194E-003
   3.3351912816650454E-003
  -2.7135863669284752E-002
  -2.6845140865382686E-002
  -1.9565195637078456E-002
  -1.4107088278085388E-002
  -9.0909397117251833E-003
   4.5989518632577446E-005
   3.8151054420883040E-004
   7.0643526113516074E-004
   9.9031662081578114E-004
   1.2746575931023975E-003
   1.6330329667582563E-003
   2.0649519245953285E-003
   2.4662908309974062E-003
   2.8519226406946794E-003
   3.2212262723433660E-003
   3.6065851509719696E-003
   4.0547427844243979E-003
   4.5711090615670504E-003
   5.5418908824820300E-003
   5.0562153125233355E-003
   3.8929345565044816E-003
  -8.8013592890473866E-003
  -6.8553138535213057E-003
   4.3344844133132404E-004
   1.0556039948753700E-003
   1.5438483854589853E-003
   1.9783258170236670E-003
   2.4719472104613636E-003
   2.9958807533569604E-003
   3.4399348985939301E-003
   3.8377148358704552E-003
   4.1751019567017357E-003
   4.4733395557928256E-003
   4.7660499146551646E-003
   5.0674771187808635E-003
   5.3919619408229263E-003
   5.7555034128300249E-003
   6.1870811716708274E-003
   6.6956528450873307E-003
   7.6611195690511813E-003
   6.4259054109264396E-003
   4.5950282479173266E-003
   3.2748029957125279E-003
   3.0120221251790863E-003
   4.2303307287694693E-003
   5.1418031241071433E-003
   5.5172826941583550E-003
   5.7203070319373174E-003
   5.8164060122539102E-003
   5.8687078004410085E-003
   5.9244935597792944E-003
   5.9943069293762327E-003
   6.0815001896527242E-003
   6.1888211605679866E-003
   6.3183950907676634E-003
   6.4732630036351442E-003
   6.6599315131841124E-003
   6.8884068756596877E-003
   7.1751606230444310E-003
   7.5380829462781043E-003
   8.1383354650719601E-003
   8.0219107157545443E-003
   6.0937396027634094E-003
   4.9200623717871672E-003
   5.4626442768847313E-003
   7.2052870304929609E-003
   8.4557451970838984E-003
   8.2719939470682000E-003
   7.9309657772388652E-003
   7.5564231532742341E-003
   7.2316416990522185E-003
   6.9696550019268857E-003
   6.7696041944643338E-003
   6.6260205108572287E-003
   6.5345953808027633E-003
   6.4919834858906999E-003
   6.4948511709372247E-003
   6.5412030902644589E-003
   6.6320558471240727E-003
   6.7723627815789583E-003
   6.9733495893749275E-003
   7.2826565473043765E-003
   7.6643097136950113E-003
   7.8598832216292876E-003
 -0.12540419046770260     
 -0.12455654052243677     
 -0.12426377039637111     
 -0.12407626241812100     
 -0.12387769921167471     
 -0.12369044850140133     
 -0.12349756386246140     
 -0.12329805377606598     
 -0.12310228537127299     
 -0.12287683978609379     
 -0.12262887642517298     
 -0.12234902408024242     
 -0.12201374588247081     
 -0.12160622751533209     
 -0.12109525222140201     
 -0.12043359227150548     
 -0.11956826820556535     
 -0.11840506851948238     
 -0.11708561786348003     
 -0.11374075802895325     
 -0.11328734045697642     
 -0.12389302849267049     
 -0.12349885222152288     
 -0.12236428707416222     
 -0.12235864137266576     
 -0.12215420162375057     
 -0.12195659357500403     
 -0.12175109209066107     
 -0.12153926142266031     
 -0.12129889025429551     
 -0.12104455476081220     
 -0.12074959787247273     
 -0.12041273241314043     
 -0.12000652012203580     
 -0.11950939621327734     
 -0.11888065423682594     
 -0.11807481629960215     
 -0.11702623964185425     
 -0.11564774324425467     
 -0.11394433980717944     
 -0.11041828274652943     
 -0.11067550949563537     
 -0.12268746885857824     
 -0.12192882159233606     
 -0.12034441690627388     
 -0.12014963046515974     
 -0.11966239491471978     
 -0.11920817533623573     
 -0.11874966162985581     
 -0.11828068732926317     
 -0.11778927449449575     
 -0.11726696608363590     
 -0.11669372614008286     
 -0.11604998674597955     
 -0.11530684557895660     
 -0.11443459713178389     
 -0.11338483855686161     
 -0.11209814197915062     
 -0.11048946130532547     
 -0.10845293433249721     
 -0.10594481581404123     
 -0.10163563185254441     
 -0.10126239575216972     
 -0.12145738280852703     
 -0.12107506115215756     
 -0.11916829138014454     
 -0.11869655065525334     
 -0.11793937207425605     
 -0.11721519251158674     
 -0.11648134845494823     
 -0.11573122041032026     
 -0.11495261479879758     
 -0.11412608796608444     
 -0.11323495174684879     
 -0.11224801816002480     
 -0.11112747313408178     
 -0.10982268260333354     
 -0.10827046649268408     
 -0.10639312777356656     
 -0.10408879838564640     
 -0.10122585183577842     
  -9.7676775316548281E-002
  -9.2335905164688065E-002
  -9.2012676453225098E-002
 -0.11989538269404328     
 -0.11972785093802592     
 -0.11741047501513757     
 -0.11659480440011212     
 -0.11553456801993241     
 -0.11450300215203699     
 -0.11346414272267553     
 -0.11240920195990130     
 -0.11131876270500768     
 -0.11016667074639791     
 -0.10891908113257021     
 -0.10753741895241718     
 -0.10597015958801681     
 -0.10415489056436719     
 -0.10200684850705463     
  -9.9414291614780978E-002
  -9.6233631950150889E-002
  -9.2394057914541305E-002
  -8.7921041885287418E-002
  -8.1962292554934008E-002
  -8.1592199158700224E-002
 -0.11797962664389515     
 -0.11802233368422846     
 -0.11528881750582537     
 -0.11409132279962624     
 -0.11269694586110743     
 -0.11132903330227101     
 -0.10995483504165292     
 -0.10854868704518227     
 -0.10708455616956733     
 -0.10553006920530868     
 -0.10384282561011002     
 -0.10196827384829925     
  -9.9834116866606273E-002
  -9.7345549978772428E-002
  -9.4413206805297634E-002
  -9.1031666610754930E-002
  -8.7141678832614020E-002
  -8.2638658900719877E-002
  -7.7245598666881174E-002
  -7.0087290977776731E-002
  -6.9655695403263690E-002
 -0.11566535638522976     
 -0.11589368550403577     
 -0.11275004419967884     
 -0.11114430018118342     
 -0.10937761281428031     
 -0.10761980684404351     
 -0.10583744947579143     
 -0.10400106818509082     
 -0.10207434272873589     
 -0.10000994712934724     
  -9.7743779846601084E-002
  -9.5209679077524922E-002
  -9.2394416519203229E-002
  -8.9282943382260449E-002
  -8.5798789057304106E-002
  -8.1849520344518908E-002
  -7.7166794859477028E-002
  -7.1532727831039186E-002
  -6.5219200148753723E-002
  -5.7869795945240096E-002
  -5.7488593045779426E-002
 -0.11294393012423166     
 -0.11328624602649352     
 -0.10974763796814122     
 -0.10766674570333168     
 -0.10544479175718183     
 -0.10320895087069135     
 -0.10091616783647750     
  -9.8521857529445228E-002
  -9.5975590407388678E-002
  -9.3263663012813844E-002
  -9.0412507268518863E-002
  -8.7377309472434966E-002
  -8.4095234643177766E-002
  -8.0464852476589160E-002
  -7.6207524942206034E-002
  -7.1311211717165715E-002
  -6.5914521692988087E-002
  -5.9963243014860231E-002
  -5.3572044531331756E-002
  -4.5455659413733890E-002
  -4.5002800301611898E-002
 -0.10975456653636510     
 -0.11010113126682868     
 -0.10612871219742605     
 -0.10347141450166504     
 -0.10067532814126345     
  -9.7809952531053679E-002
  -9.4834888764105715E-002
  -9.1799517443662076E-002
  -8.8725420331685539E-002
  -8.5567829507803880E-002
  -8.2270822833410778E-002
  -7.8697896589434532E-002
  -7.4616243075527749E-002
  -7.0207659944693912E-002
  -6.5472371898537496E-002
  -6.0357506719901630E-002
  -5.4921705648304120E-002
  -4.8514929631879276E-002
  -4.1194010761536566E-002
  -3.3032504445177274E-002
  -3.2645567122125324E-002
 -0.10589524967773591     
 -0.10615261816439969     
 -0.10165238547358764     
  -9.8246794867720574E-002
  -9.4680828756042279E-002
  -9.1133400810121695E-002
  -8.7632724819545635E-002
  -8.4142254956815002E-002
  -8.0595392835771690E-002
  -7.6792246773821252E-002
  -7.2706137041663524E-002
  -6.8520360049450557E-002
  -6.4171650119621323E-002
  -5.9628549374317573E-002
  -5.4918769107259229E-002
  -4.9505543329514200E-002
  -4.3382063322629588E-002
  -3.6691005703406117E-002
  -2.9651021588488945E-002
  -2.1304603248897370E-002
  -2.0922794484737463E-002
 -0.10101345439311227     
 -0.10114182020295409     
  -9.5899635629665594E-002
  -9.1656834849449365E-002
  -8.7498726179303377E-002
  -8.3445293739198206E-002
  -7.9401114874919826E-002
  -7.5124116559499868E-002
  -7.0827428754607111E-002
  -6.6581973089277213E-002
  -6.2334743115940332E-002
  -5.8093971620915015E-002
  -5.3838327717129139E-002
  -4.8958394587060715E-002
  -4.3712410636787422E-002
  -3.8115058173678953E-002
  -3.2179445036945489E-002
  -2.5649206165136652E-002
  -1.8252469524158939E-002
  -1.0315047203332383E-002
  -1.0115359514396995E-002
  -9.4603494683288117E-002
  -9.4588081618831490E-002
  -8.8769220861027634E-002
  -8.3909641404825722E-002
  -7.9125390810504889E-002
  -7.4164705209017259E-002
  -6.9368555951276167E-002
  -6.4768533039095064E-002
  -6.0343011556003127E-002
  -5.6122551843021694E-002
  -5.1883738084371002E-002
  -4.7246140017635725E-002
  -4.2534842121260692E-002
  -3.7662446903110616E-002
  -3.2664775429329634E-002
  -2.7412593352616393E-002
  -2.1467141098527459E-002
  -1.4876586670283935E-002
  -7.5299843851333861E-003
  -2.9713455772786941E-005
  -5.7837255391478902E-005
  -8.6814515240479062E-002
  -8.6645558522816246E-002
  -8.0311626719502552E-002
  -7.4415489599183565E-002
  -6.8774363950962508E-002
  -6.3489805065186186E-002
  -5.8590601661559737E-002
  -5.4093956179110225E-002
  -4.9415954439576991E-002
  -4.4793798932603636E-002
  -4.0270496012320724E-002
  -3.5793819681363498E-002
  -3.1432818321434297E-002
  -2.6899361281991732E-002
  -2.2003273576502839E-002
  -1.6767673989791926E-002
  -1.1282113281710391E-002
  -4.5874104278803181E-003
   5.9496254089711894E-003
   6.5835583608470829E-003
   6.4610072268567933E-003
  -7.7207484489971737E-002
  -7.6940794107612676E-002
  -6.9652418893990223E-002
  -6.3274919100784352E-002
  -5.7508740526695683E-002
  -5.2288803006110864E-002
  -4.6999307187287662E-002
  -4.2055779184400718E-002
  -3.7366199337587828E-002
  -3.3004200278515375E-002
  -2.8942818770527737E-002
  -2.4688462114690200E-002
  -2.0403876751479456E-002
  -1.6036200860432424E-002
  -1.1673630920424019E-002
  -6.7413433808102474E-003
  -1.8341955110696454E-003
   5.9969540025056984E-003
   6.8903312408669813E-003
   7.6080243499406664E-003
   7.6900240170012860E-003
  -6.5423086275724615E-002
  -6.5097136859333729E-002
  -5.7710869518698783E-002