# vtk DataFile Version 2.0
3D Unstructured Grid of Linear Triangles
ASCII
DATASET UNSTRUCTURED_GRID
FIELD FieldData  1
TIME 1 1 double
        3607.50288
POINTS     7056 float
      0.00000000E+00  1.00000000E+01  1.00000000E+00
      5.00000000E-01  1.00000000E+01  9.93333333E-01
      1.00000000E+00  1.00000000E+01  9.83333333E-01
      1.50000000E+00  1.00000000E+01  9.73333333E-01
      2.00000000E+00  1.00000000E+01  9.63333333E-01
      2.50000000E+00  1.00000000E+01  9.53333333E-01
      3.00000000E+00  1.00000000E+01  9.43333333E-01
      3.50000000E+00  1.00000000E+01  9.33333333E-01
      4.00000000E+00  1.00000000E+01  9.23333333E-01
      4.50000000E+00  1.00000000E+01  9.13333333E-01
      5.00000000E+00  1.00000000E+01  9.03333333E-01
      5.50000000E+00  1.00000000E+01  8.93333333E-01
      6.00000000E+00  1.00000000E+01  8.83333333E-01
      6.50000000E+00  1.00000000E+01  8.73333333E-01
      7.00000000E+00  1.00000000E+01  8.63333333E-01
      7.50000000E+00  1.00000000E+01  8.53333333E-01
      8.00000000E+00  1.00000000E+01  8.43333333E-01
      8.50000000E+00  1.00000000E+01  8.33333333E-01
      9.00000000E+00  1.00000000E+01  8.23333333E-01
      9.50000000E+00  1.00000000E+01  8.13333333E-01
      1.00000000E+01  1.00000000E+01  8.10000000E-01
      0.00000000E+00  9.50000000E+00  9.83333333E-01
      5.00000000E-01  9.50000000E+00  9.82500000E-01
      1.00000000E+00  9.50000000E+00  9.72500000E-01
      1.50000000E+00  9.50000000E+00  9.62500000E-01
      2.00000000E+00  9.50000000E+00  9.52500000E-01
      2.50000000E+00  9.50000000E+00  9.42500000E-01
      3.00000000E+00  9.50000000E+00  9.32500000E-01
      3.50000000E+00  9.50000000E+00  9.22500000E-01
      4.00000000E+00  9.50000000E+00  9.12500000E-01
      4.50000000E+00  9.50000000E+00  9.02500000E-01
      5.00000000E+00  9.50000000E+00  8.92500000E-01
      5.50000000E+00  9.50000000E+00  8.82500000E-01
      6.00000000E+00  9.50000000E+00  8.72500000E-01
      6.50000000E+00  9.50000000E+00  8.62500000E-01
      7.00000000E+00  9.50000000E+00  8.52500000E-01
      7.50000000E+00  9.50000000E+00  8.42500000E-01
      8.00000000E+00  9.50000000E+00  8.32500000E-01
      8.50000000E+00  9.50000000E+00  8.22500000E-01
      9.00000000E+00  9.50000000E+00  8.12500000E-01
      9.50000000E+00  9.50000000E+00  8.02500000E-01
      1.00000000E+01  9.50000000E+00  8.01666667E-01
      0.00000000E+00  9.00000000E+00  9.58333333E-01
      5.00000000E-01  9.00000000E+00  9.57500000E-01
      1.00000000E+00  9.00000000E+00  9.47500000E-01
      1.50000000E+00  9.00000000E+00  9.37500000E-01
      2.00000000E+00  9.00000000E+00  9.27500000E-01
      2.50000000E+00  9.00000000E+00  9.17500000E-01
      3.00000000E+00  9.00000000E+00  9.07500000E-01
      3.50000000E+00  9.00000000E+00  8.97500000E-01
      4.00000000E+00  9.00000000E+00  8.87500000E-01
      4.50000000E+00  9.00000000E+00  8.77500000E-01
      5.00000000E+00  9.00000000E+00  8.67500000E-01
      5.50000000E+00  9.00000000E+00  8.57500000E-01
      6.00000000E+00  9.00000000E+00  8.47500000E-01
      6.50000000E+00  9.00000000E+00  8.37500000E-01
      7.00000000E+00  9.00000000E+00  8.27500000E-01
      7.50000000E+00  9.00000000E+00  8.17500000E-01
      8.00000000E+00  9.00000000E+00  8.07500000E-01
      8.50000000E+00  9.00000000E+00  7.97500000E-01
      9.00000000E+00  9.00000000E+00  7.87500000E-01
      9.50000000E+00  9.00000000E+00  7.77500000E-01
      1.00000000E+01  9.00000000E+00  7.76666667E-01
      0.00000000E+00  8.50000000E+00  9.33333333E-01
      5.00000000E-01  8.50000000E+00  9.32500000E-01
      1.00000000E+00  8.50000000E+00  9.22500000E-01
      1.50000000E+00  8.50000000E+00  9.12500000E-01
      2.00000000E+00  8.50000000E+00  9.02500000E-01
      2.50000000E+00  8.50000000E+00  8.92500000E-01
      3.00000000E+00  8.50000000E+00  8.82500000E-01
      3.50000000E+00  8.50000000E+00  8.72500000E-01
      4.00000000E+00  8.50000000E+00  8.62500000E-01
      4.50000000E+00  8.50000000E+00  8.52500000E-01
      5.00000000E+00  8.50000000E+00  8.42500000E-01
      5.50000000E+00  8.50000000E+00  8.32500000E-01
      6.00000000E+00  8.50000000E+00  8.22500000E-01
      6.50000000E+00  8.50000000E+00  8.12500000E-01
      7.00000000E+00  8.50000000E+00  8.02500000E-01
      7.50000000E+00  8.50000000E+00  7.92500000E-01
      8.00000000E+00  8.50000000E+00  7.82500000E-01
      8.50000000E+00  8.50000000E+00  7.72500000E-01
      9.00000000E+00  8.50000000E+00  7.62500000E-01
      9.50000000E+00  8.50000000E+00  7.52500000E-01
      1.00000000E+01  8.50000000E+00  7.51666667E-01
      0.00000000E+00  8.00000000E+00  9.08333333E-01
      5.00000000E-01  8.00000000E+00  9.07500000E-01
      1.00000000E+00  8.00000000E+00  8.97500000E-01
      1.50000000E+00  8.00000000E+00  8.87500000E-01
      2.00000000E+00  8.00000000E+00  8.77500000E-01
      2.50000000E+00  8.00000000E+00  8.67500000E-01
      3.00000000E+00  8.00000000E+00  8.57500000E-01
      3.50000000E+00  8.00000000E+00  8.47500000E-01
      4.00000000E+00  8.00000000E+00  8.37500000E-01
      4.50000000E+00  8.00000000E+00  8.27500000E-01
      5.00000000E+00  8.00000000E+00  8.17500000E-01
      5.50000000E+00  8.00000000E+00  8.07500000E-01
      6.00000000E+00  8.00000000E+00  7.97500000E-01
      6.50000000E+00  8.00000000E+00  7.87500000E-01
      7.00000000E+00  8.00000000E+00  7.77500000E-01
      7.50000000E+00  8.00000000E+00  7.67500000E-01
      8.00000000E+00  8.00000000E+00  7.57500000E-01
      8.50000000E+00  8.00000000E+00  7.47500000E-01
      9.00000000E+00  8.00000000E+00  7.37500000E-01
      9.50000000E+00  8.00000000E+00  7.27500000E-01
      1.00000000E+01  8.00000000E+00  7.26666667E-01
      0.00000000E+00  7.50000000E+00  8.83333333E-01
      5.00000000E-01  7.50000000E+00  8.82500000E-01
      1.00000000E+00  7.50000000E+00  8.72500000E-01
      1.50000000E+00  7.50000000E+00  8.62500000E-01
      2.00000000E+00  7.50000000E+00  8.52500000E-01
      2.50000000E+00  7.50000000E+00  8.42500000E-01
      3.00000000E+00  7.50000000E+00  8.32500000E-01
      3.50000000E+00  7.50000000E+00  8.22500000E-01
      4.00000000E+00  7.50000000E+00  8.12500000E-01
      4.50000000E+00  7.50000000E+00  8.02500000E-01
      5.00000000E+00  7.50000000E+00  7.92500000E-01
      5.50000000E+00  7.50000000E+00  7.82500000E-01
      6.00000000E+00  7.50000000E+00  7.72500000E-01
      6.50000000E+00  7.50000000E+00  7.62500000E-01
      7.00000000E+00  7.50000000E+00  7.52500000E-01
      7.50000000E+00  7.50000000E+00  7.42500000E-01
      8.00000000E+00  7.50000000E+00  7.32500000E-01
      8.50000000E+00  7.50000000E+00  7.22500000E-01
      9.00000000E+00  7.50000000E+00  7.12500000E-01
      9.50000000E+00  7.50000000E+00  7.02500000E-01
      1.00000000E+01  7.50000000E+00  7.01666667E-01
      0.00000000E+00  7.00000000E+00  8.58333333E-01
      5.00000000E-01  7.00000000E+00  8.57500000E-01
      1.00000000E+00  7.00000000E+00  8.47500000E-01
      1.50000000E+00  7.00000000E+00  8.37500000E-01
      2.00000000E+00  7.00000000E+00  8.27500000E-01
      2.50000000E+00  7.00000000E+00  8.17500000E-01
      3.00000000E+00  7.00000000E+00  8.07500000E-01
      3.50000000E+00  7.00000000E+00  7.97500000E-01
      4.00000000E+00  7.00000000E+00  7.87500000E-01
      4.50000000E+00  7.00000000E+00  7.77500000E-01
      5.00000000E+00  7.00000000E+00  7.67500000E-01
      5.50000000E+00  7.00000000E+00  7.57500000E-01
      6.00000000E+00  7.00000000E+00  7.47500000E-01
      6.50000000E+00  7.00000000E+00  7.37500000E-01
      7.00000000E+00  7.00000000E+00  7.27500000E-01
      7.50000000E+00  7.00000000E+00  7.17500000E-01
      8.00000000E+00  7.00000000E+00  7.07500000E-01
      8.50000000E+00  7.00000000E+00  6.97500000E-01
      9.00000000E+00  7.00000000E+00  6.87500000E-01
      9.50000000E+00  7.00000000E+00  6.77500000E-01
      1.00000000E+01  7.00000000E+00  6.76666667E-01
      0.00000000E+00  6.50000000E+00  8.33333333E-01
      5.00000000E-01  6.50000000E+00  8.32500000E-01
      1.00000000E+00  6.50000000E+00  8.22500000E-01
      1.50000000E+00  6.50000000E+00  8.12500000E-01
      2.00000000E+00  6.50000000E+00  8.02500000E-01
      2.50000000E+00  6.50000000E+00  7.92500000E-01
      3.00000000E+00  6.50000000E+00  7.82500000E-01
      3.50000000E+00  6.50000000E+00  7.72500000E-01
      4.00000000E+00  6.50000000E+00  7.62500000E-01
      4.50000000E+00  6.50000000E+00  7.52500000E-01
      5.00000000E+00  6.50000000E+00  7.42500000E-01
      5.50000000E+00  6.50000000E+00  7.32500000E-01
      6.00000000E+00  6.50000000E+00  7.22500000E-01
      6.50000000E+00  6.50000000E+00  7.12500000E-01
      7.00000000E+00  6.50000000E+00  7.02500000E-01
      7.50000000E+00  6.50000000E+00  6.92500000E-01
      8.00000000E+00  6.50000000E+00  6.82500000E-01
      8.50000000E+00  6.50000000E+00  6.72500000E-01
      9.00000000E+00  6.50000000E+00  6.62500000E-01
      9.50000000E+00  6.50000000E+00  6.52500000E-01
      1.00000000E+01  6.50000000E+00  6.51666667E-01
      0.00000000E+00  6.00000000E+00  8.08333333E-01
      5.00000000E-01  6.00000000E+00  8.07500000E-01
      1.00000000E+00  6.00000000E+00  7.97500000E-01
      1.50000000E+00  6.00000000E+00  7.87500000E-01
      2.00000000E+00  6.00000000E+00  7.77500000E-01
      2.50000000E+00  6.00000000E+00  7.67500000E-01
      3.00000000E+00  6.00000000E+00  7.57500000E-01
      3.50000000E+00  6.00000000E+00  7.47500000E-01
      4.00000000E+00  6.00000000E+00  7.37500000E-01
      4.50000000E+00  6.00000000E+00  7.27500000E-01
      5.00000000E+00  6.00000000E+00  7.17500000E-01
      5.50000000E+00  6.00000000E+00  7.07500000E-01
      6.00000000E+00  6.00000000E+00  6.97500000E-01
      6.50000000E+00  6.00000000E+00  6.87500000E-01
      7.00000000E+00  6.00000000E+00  6.77500000E-01
      7.50000000E+00  6.00000000E+00  6.67500000E-01
      8.00000000E+00  6.00000000E+00  6.57500000E-01
[...]
POINT_DATA     7056
SCALARS pressure float
LOOKUP_TABLE default
 -0.15868596610895719     
 -0.15791072694567279     
 -0.15768854166534366     
 -0.15761460129849225     
 -0.15747401295125996     
 -0.15736440535728263     
 -0.15724472187116034     
 -0.15713071679170662     
 -0.15699591208950564     
 -0.15685896886453427     
 -0.15670119994948989     
 -0.15650525636971677     
 -0.15626875222204220     
 -0.15596588039026296     
 -0.15557009862235091     
 -0.15504437117942793     
 -0.15433191433513369     
 -0.15333728009346514     
 -0.15232916191071180     
 -0.14907450456945134     
 -0.14822470233452187     
 -0.15728133583139037     
 -0.15681849782971938     
 -0.15569935298617829     
 -0.15583362585585156     
 -0.15573511860544803     
 -0.15565014645320804     
 -0.15555361206294693     
 -0.15544156880576898     
 -0.15531467814163935     
 -0.15515452750306782     
 -0.15496380084805086     
 -0.15472249037296040     
 -0.15441288142200846     
 -0.15401129095694788     
 -0.15347748362333477     
 -0.15277213575136084     
 -0.15183726756495924     
 -0.15058133167805110     
 -0.14911101447448766     
 -0.14571333486803920     
 -0.14553371179350491     
 -0.15644328380829364     
 -0.15558559569318450     
 -0.15407462449351036     
 -0.15416279193438134     
 -0.15384885409299351     
 -0.15356050188225751     
 -0.15326450007008974     
 -0.15294603712833688     
 -0.15259901795075012     
 -0.15220565124874078     
 -0.15175039450949845     
 -0.15121045609209677     
 -0.15056008035346050     
 -0.14976152124807715     
 -0.14877149449236257     
 -0.14753280885929926     
 -0.14597574526156371     
 -0.14401165017241005     
 -0.14170572922367572     
 -0.13751705092585972     
 -0.13677437142650201     
 -0.15568244215894586     
 -0.15523009639697338     
 -0.15351643702164722     
 -0.15341462013863510     
 -0.15289874014949273     
 -0.15240798621649682     
 -0.15188284706293367     
 -0.15131386411637596     
 -0.15068625359819496     
 -0.14998332890948785     
 -0.14917798202687929     
 -0.14824613038255641     
 -0.14714880365381913     
 -0.14584347625532421     
 -0.14427372925758852     
 -0.14237496964355642     
 -0.14007917024502581     
 -0.13732638490798155     
 -0.13419156761712625     
 -0.12939916912523669     
 -0.12894654314532347     
 -0.15469989685236785     
 -0.15441783237917703     
 -0.15235986543695651     
 -0.15198428910667588     
 -0.15121262703185961     
 -0.15043755474918991     
 -0.14961085577215288     
 -0.14871532638708906     
 -0.14773453335296419     
 -0.14664415750356927     
 -0.14541789117491805     
 -0.14401824049734926     
 -0.14240030451678101     
 -0.14051278937180992     
 -0.13830391981863471     
 -0.13573824572844712     
 -0.13278529901460703     
 -0.12938585844369258     
 -0.12554062509867034     
 -0.12016642318983797     
 -0.11974623875663962     
 -0.15343288598527396     
 -0.15325501139293346     
 -0.15084552644762239     
 -0.15010922422964779     
 -0.14900166158987160     
 -0.14786432713823150     
 -0.14665244747205913     
 -0.14534693703960302     
 -0.14392779774698458     
 -0.14236545960291086     
 -0.14062528676611921     
 -0.13866876128138045     
 -0.13646600445236723     
 -0.13399523265007532     
 -0.13121143415167952     
 -0.12805876727605731     
 -0.12448233736225243     
 -0.12041728926443054     
 -0.11582043325506212     
 -0.10972141771751064     
 -0.10925988342331429     
 -0.15173791525759875     
 -0.15158331053028878     
 -0.14879081890555332     
 -0.14760778816028289     
 -0.14608237189299839     
 -0.14449801942401516     
 -0.14281604938727652     
 -0.14101435688697289     
 -0.13906939938949281     
 -0.13696054591056273     
 -0.13467824823705299     
 -0.13219742645462301     
 -0.12947335414918706     
 -0.12645867884108383     
 -0.12310091718895323     
 -0.11933891934190870     
 -0.11509822263008489     
 -0.11022311659214655     
 -0.10452941472554321     
  -9.7562589212173881E-002
  -9.7040046075269643E-002
 -0.14942999650341149     
 -0.14926052246619936     
 -0.14603720518051677     
 -0.14430624819685739     
 -0.14226818637181549     
 -0.14014346114015760     
 -0.13790446991383407     
 -0.13555214174336544     
 -0.13308632624528313     
 -0.13047953365292958     
 -0.12769533890920784     
 -0.12469498751630702     
 -0.12143144532800264     
 -0.11784870511233095     
 -0.11387196320166468     
 -0.10933521744131823     
 -0.10412522760886093     
  -9.8368078332027181E-002
  -9.2053281952715588E-002
  -8.4521607867678122E-002
  -8.3955455575116092E-002
 -0.14628483229169242     
 -0.14610453954125538     
 -0.14236284213375289     
 -0.13997697257047606     
 -0.13733576118378776     
 -0.13463483204926879     
 -0.13186651800227481     
 -0.12900796133271525     
 -0.12603265500454078     
 -0.12290936926582963     
 -0.11959748265686884     
 -0.11604874015598005     
 -0.11217612736473603     
 -0.10780984150262524     
 -0.10297599032645080     
  -9.7723056239088599E-002
  -9.2028923969401294E-002
  -8.5737330651710020E-002
  -7.8440992322951320E-002
  -7.0190867022646430E-002
  -6.9602474417485363E-002
 -0.14201812245758491     
 -0.14185256399040713     
 -0.13750638521361111     
 -0.13444219077503403     
 -0.13123406829543999     
 -0.12798655437069067     
 -0.12467638205956451     
 -0.12127918784402893     
 -0.11776254515158630     
 -0.11407863298876539     
 -0.11011242795531224     
 -0.10576410458435428     
 -0.10114758475315454     
  -9.6238833467616636E-002
  -9.1032261430785313E-002
  -8.5308495971469278E-002
  -7.8818300486049972E-002
  -7.1812445427743773E-002
  -6.4285639882472712E-002
  -5.6036378156787706E-002
  -5.5538383287104615E-002
 -0.13640012726233236     
 -0.13626376784472569     
 -0.13139070359324964     
 -0.12767284555274608     
 -0.12386494418636751     
 -0.12002766794602647     
 -0.11613391511693776     
 -0.11211819028529063     
 -0.10784294497540903     
 -0.10337878518444601     
  -9.8783788033983175E-002
  -9.4041267052282509E-002
  -8.9136264586912359E-002
  -8.3714260172502095E-002
  -7.7845391828988947E-002
  -7.1614102138461949E-002
  -6.5001411956657859E-002
  -5.8121449067700413E-002
  -5.0260556052841333E-002
  -4.1626736554052142E-002
  -4.1133189054534454E-002
 -0.12945550552497348     
 -0.12927164687371626     
 -0.12386935276439573     
 -0.11944542638084053     
 -0.11497767834769529     
 -0.11040938147737274     
 -0.10565211421439830     
 -0.10088049030345130     
  -9.6099454099745629E-002
  -9.1325399536738391E-002
  -8.6422745582153127E-002
  -8.1103818261018576E-002
  -7.5633972224170981E-002
  -6.9951342557038151E-002
  -6.4087283736804723E-002
  -5.8052970494510567E-002
  -5.1284075871671692E-002
  -4.4057527205560262E-002
  -3.6497587105955728E-002
  -2.8070669159349207E-002
  -2.7717602300340403E-002
 -0.12092712463676510     
 -0.12063252564397414     
 -0.11464633867627519     
 -0.10930956359816445     
 -0.10387639723349842     
  -9.8555476518600915E-002
  -9.3374339269334763E-002
  -8.8316127531607183E-002
  -8.3017292751796340E-002
  -7.7689715794684699E-002
  -7.2363903300079024E-002
  -6.7006367622054350E-002
  -6.1699140564489184E-002
  -5.6174374156716451E-002
  -5.0250143227139978E-002
  -4.4022498702438496E-002
  -3.7603817758199994E-002
  -3.0767951950426312E-002
  -2.3317964877657020E-002
  -1.5430527127766309E-002
  -1.5323093670277127E-002
 -0.11027270285876158     
 -0.10987801588622571     
 -0.10295910667634570     
  -9.6802305678208092E-002
  -9.0941128004403848E-002
  -8.5170903069648626E-002
  -7.9371430736969020E-002
  -7.3765838208762355E-002
  -6.8319588118305574E-002
  -6.3101562664570954E-002
  -5.8033708467933688E-002
  -5.2694509697372542E-002
  -4.7300221637150794E-002
  -4.1851170123790325E-002
  -3.6408190226445994E-002
  -3.0580239833611633E-002
  -2.4474423753532183E-002
  -1.8103722189921449E-002
  -1.1035779686386415E-002
  -4.4330152680095193E-003
  -4.7916392822880821E-003
  -9.6963297363452050E-002
  -9.6526532364717352E-002
  -8.9288261825516607E-002
  -8.2423481959849915E-002
  -7.5856665396992193E-002
  -6.9666573933552939E-002
  -6.3902664009236887E-002
  -5.8570410385909363E-002
  -5.3143250176018973E-002
  -4.7909446076082114E-002
  -4.2841084827108453E-002
  -3.7898115015146817E-002
  -3.2952247279489019E-002
  -2.7922540739175435E-002
  -2.2825581255023548E-002
  -1.7483207187160187E-002
  -1.2038630710692999E-002
  -5.8315297989237815E-003
   1.0604025129910283E-003
   1.1760891936077184E-003
   5.8964909833924585E-004
  -8.1539982902647537E-002
  -8.1078020089573072E-002
  -7.3062692310325486E-002
  -6.5865203882561105E-002
  -5.9520265897172492E-002
  -5.3350426954403743E-002
  -4.7574236915804174E-002
  -4.2197791112658360E-002
  -3.7162811503599916E-002
  -3.2450489799997609E-002
  -2.7861413022539853E-002
  -2.3310219900950120E-002
  -1.8546798014049664E-002
  -1.4236524698393770E-002
  -1.0009256359740797E-002
  -3.7589974318421554E-003
   6.4793170936334544E-004
   1.5450186482795297E-003
   3.3154763110000178E-003
   3.6577807811437883E-003
   2.2790668317027316E-003
  -6.3775409341428918E-002
  -6.3419761588740325E-002
  -5.5384760728377683E-002
  -4.7923783216896949E-002
  -4.1519113900276745E-002
  -3.5981057108003124E-002
  -3.0737597999922209E-002
  -2.5791735699966602E-002
  -2.0863962666383528E-002
  -1.6799865916931375E-002
  -1.3153310925360056E-002
  -9.3309664807085489E-003
  -2.5550765176974954E-003
   5.2084710916333588E-004
   1.2620141554906315E-003
   1.9744744549181439E-003
   2.9721835885521716E-003
   4.3558117665672171E-003
   6.3524892094895874E-003
   5.8400363503566576E-003
   3.8738492710516542E-003
  -4.4312330597827403E-002
  -4.4028422211939783E-002
  -3.6067241203583185E-002
  -2.8419909748228507E-002
  -2.2507071462257049E-002
  -1.7965862819829741E-002
  -1.3845148506037455E-002
  -9.6930670389460769E-003
  -2.5138170983294282E-003
   4.7897888365864834E-004
   1.1136950180809634E-003
   1.7109613194603529E-003
   2.3047442856356471E-003
   3.0668278492236856E-003
   4.1495802016783970E-003
   5.2078282447373487E-003
   6.2894668183012042E-003
   7.2635049243345816E-003
   9.1456738331113455E-003
   7.8612225842849808E-003
   5.1939474578959590E-003
  -2.3141329632545209E-002
  -2.3002907779769811E-002
  -1.5547907782211344E-002
  -4.5268464916035428E-003
   7.2189767494211608E-004
   1.6343463248760042E-003
   2.3937053617592938E-003
   3.0886507943760607E-003
   3.7374611243224617E-003
   4.4969500943227748E-003
   5.4716526257706502E-003
   6.3745921275169736E-003
   7.2532538946154116E-003
   8.0576788452332571E-003
   8.8178464189359075E-003
   9.6148429228238019E-003
   1.0525942032442455E-002
   1.1408787197101528E-002
   1.3022439333948607E-002
   1.0326712380384134E-002
   6.4669971306574722E-003
   1.5673026253639462E-003
   2.1019769544689897E-003
   3.5554493308347585E-003
   4.4488582221899418E-003
   5.1998565636643323E-003
   6.1378347261890915E-003
   6.8062127405461902E-003
   7.3868268518735769E-003
   7.9004921520065500E-003
   8.3066525738220987E-003
   8.6375988327551147E-003
   8.9687556759268077E-003
   9.3250773740257420E-003
   9.7175155036268914E-003
   1.0156617360507171E-002
   1.0650914148313789E-002
   1.1224004458433995E-002
   1.1851035802519632E-002
   1.2744254735853994E-002
   1.2187474965669270E-002
   8.5771373559935370E-003
   2.5400691449083751E-003
   3.5432210632193213E-003
   6.4111755943510275E-003
   8.4257908623145261E-003
   9.1480047829019025E-003
   9.2739252396728429E-003
   9.1506441738111143E-003
   8.9705308784973417E-003
   8.7955709599824034E-003
   8.6550572816873495E-003
   8.5611826513128549E-003
   8.5186953932945963E-003
   8.5273454969817999E-003
   8.5871493813840568E-003
   8.7009250938032499E-003
   8.8743539423144103E-003
   9.1159934327485394E-003
   9.4420153988571520E-003
   9.9251483703759521E-003
   1.0498276158341254E-002
   1.0769447131984007E-002
 -0.15285702592860104     
 -0.15213426903331109     
 -0.15191217269487592     
 -0.15183840979947399     
 -0.15169794367876177     
 -0.15158839429198839     
 -0.15146875004544325     
 -0.15135472621169432     
 -0.15121987276450694     
 -0.15108281758587749     
 -0.15092488788203079     
 -0.15072875535986333     
 -0.15049199075816852     
 -0.15018876052990909     
 -0.14979246421801903     
 -0.14926597250718832     
 -0.14855243659593431     
 -0.14755655653502367     
 -0.14654568811167984     
 -0.14328931692379637     
 -0.14253988106517751     
 -0.15151208274210212     
 -0.15115031833136025     
 -0.15003010137213640     
 -0.15016506124782050     
 -0.15006683027497714     
 -0.14998201567813002     
 -0.14988558717942349     
 -0.14977361700957925     
 -0.14964675585120074     
 -0.14948662216954869     
 -0.14929584467670035     
 -0.14905437283050341     
 -0.14874441112973499     
 -0.14834214649476080     
 -0.14780724220808977     
 -0.14710025462532081     
 -0.14616320045270445     
 -0.14490459306918174     
 -0.14343026217128110     
 -0.14002966027200919     
 -0.13994208976296635     
 -0.15067719535572932     
 -0.14992269140029704     
 -0.14841080499906492     
 -0.14849951414877524     
 -0.14818574017847894     
 -0.14789747343759027     
 -0.14760155021101920     
 -0.14728313573691654     
 -0.14693606990228444     
 -0.14654251433362545     
 -0.14608681388605910     
 -0.14554609454238446     
 -0.14489452561771729     
 -0.14409432443023004     
 -0.14310210703556736     
 -0.14186061530309582     
 -0.14030013388407883     
 -0.13833204538110389     
 -0.13602057362438955     
 -0.13182520068848927     
 -0.13117100422937022     
 -0.14991672363115111     
 -0.14956821343975057     
 -0.14785372173502143     
 -0.14775252844692749     
 -0.14723700063255876     
 -0.14674640286816687     
 -0.14622130091895133     
 -0.14565210401948081     
 -0.14502394660205015     
 -0.14432007492971477     
 -0.14351337750094376     
 -0.14257964715885832     
 -0.14147984645210088     
 -0.14017140944294679     
 -0.13859789024235869     
 -0.13669455006467893     
 -0.13439278975315302     
 -0.13163100424263796     
 -0.12848338307968776     
 -0.12367979480771946     
 -0.12331164773265423     
 -0.14893416724958009     
 -0.14875661036785168     
 -0.14669794252480589     
 -0.14632291498937175     
 -0.14555152441467017     
 -0.14477625641964953     
 -0.14394895977380245     
 -0.14305239864773855     
 -0.14207005842806217     
 -0.14097753478619116     
 -0.13974848332151649     
 -0.13834540157208980     
 -0.13672330753051973     
 -0.13483059026656280     
 -0.13261446693931525     
 -0.13003822968704012     
 -0.12707324832227510     
 -0.12366107281076230     
 -0.11980132813514958     
 -0.11441596601324999     
 -0.11407442423499098     
 -0.14766698347125490     
 -0.14759437251013521     
 -0.14518382293242957     
 -0.14444749698302614     
 -0.14333949459230172     
 -0.14220105784536949     
 -0.14098745576422114     
 -0.13967955444448532     
 -0.13825734353951538     
 -0.13669122389660940     
 -0.13494634922026350     
 -0.13298355287068156     
 -0.13077176445862543     
 -0.12828982148713530     
 -0.12549422524042508     
 -0.12232893909830229     
 -0.11873900501505080     
 -0.11465981427052654     
 -0.11004810365251805     
 -0.10394554161007319     
 -0.10355777045652599     
 -0.14597133432453729     
 -0.14592175408099506     
 -0.14312741643464308     
 -0.14194336059848509     
 -0.14041625271308086     
 -0.13882931434665624     
 -0.13714402288352198     
 -0.13533813761274427     
 -0.13338766702632085     
 -0.13127095016067147     
 -0.12897820155936104     
 -0.12648616314640754     
 -0.12375027191610175     
 -0.12072302863905428     
 -0.11735205395532779     
 -0.11357630401992297     
 -0.10932225608466084     
 -0.10443863308797838     
  -9.8729339412525707E-002
  -9.1748056575687451E-002
  -9.1285990642532941E-002
 -0.14366152204353289     
 -0.14359481885222886     
 -0.14036908821315383     
 -0.13863545555853099     
 -0.13659396697248813     
 -0.13446457898299316     
 -0.13221898859687578     
 -0.12985709820160218     
 -0.12738025250599000     
 -0.12476201105558909     
 -0.12196578521715969     
 -0.11895286640721983     
 -0.11567629456212439     
 -0.11208019166463808     
 -0.10809149915802695     
 -0.10354743177238721     
  -9.8321133374352304E-002
  -9.2544027308747015E-002
  -8.6206319730039893E-002
  -7.8672910649666514E-002
  -7.8157793239115675E-002
 -0.14051203402939624     
 -0.14043040540078505     
 -0.13668581043053118     
 -0.13429470155072662     
 -0.13164584868296925     
 -0.12893409272667858     
 -0.12615428418256519     
 -0.12328382878300942     
 -0.12029616450297310     
 -0.11716018227462431     
 -0.11383533719560797     
 -0.11027385971891925     
 -0.10639140191308019     
 -0.10201709021459639     
  -9.7165578717862230E-002
  -9.1893796671805708E-002
  -8.6178831486346502E-002
  -7.9877431805087454E-002
  -7.2560402789013420E-002
  -6.4297082460887431E-002
  -6.3742975312114133E-002
 -0.13623730158938796     
 -0.13616512311161427     
 -0.13181218331444705     
 -0.12873586561950787     
 -0.12551562897917631     
 -0.12225557641830123     
 -0.11893256628129986     
 -0.11552237320331679     
 -0.11199270914295627     
 -0.10829737264557157     
 -0.10432388694706482     
  -9.9962731423922535E-002
  -9.5329032341666273E-002
  -9.0401949988286337E-002
  -8.5176132756478395E-002
  -7.9444736072816741E-002
  -7.2935977491610154E-002
  -6.5911571036587679E-002
  -5.8363961756050520E-002
  -5.0108059354443547E-002
  -4.9633958253005928E-002
 -0.13060092477988766     
 -0.13055070227569754     
 -0.12566651187854508     
 -0.12193490269604662     
 -0.11811350755880469     
 -0.11426271140346816     
 -0.11035598023734432     
 -0.10633079459915135     
 -0.10204772168579385     
  -9.7567202860892918E-002
  -9.2955432812020983E-002
  -8.8194514698657508E-002
  -8.3273030364269141E-002
  -7.7842814478526826E-002
  -7.1957274446219299E-002
  -6.5709783090174445E-002
  -5.9079656296129990E-002
  -5.2188478516574446E-002
  -4.4312233196551101E-002
  -3.5669618218206856E-002
  -3.5188512887749684E-002
 -0.12363139643955322     
 -0.12352518811063795     
 -0.11811041866262212     
 -0.11367187459877560     
 -0.10919129825852468     
 -0.10461558967677539     
  -9.9845409003882210E-002
  -9.5057120385521041E-002
  -9.0258532594721580E-002
  -8.5466912868381428E-002
  -8.0556501272810638E-002
  -7.5222888268877103E-002
  -6.9737232826677847E-002
  -6.4040050843347907E-002
  -5.8160395568980963E-002
  -5.2116983404778404E-002
  -4.5336164117390880E-002
  -3.8098747755339987E-002
  -3.0526479695636526E-002
  -2.2095444295261297E-002
  -2.1748650756971914E-002
 -0.11507632733293720     
 -0.11484801494046851     
 -0.10885092859109878     
 -0.10350714220302448     
  -9.8057461497631684E-002
  -9.2719108230831515E-002
  -8.7519676048174691E-002
  -8.2447190877791302E-002
  -7.7139444034615770E-002
  -7.1797051469358553E-002
  -6.6457553171487146E-002
  -6.1085214297387190E-002
  -5.5763246393804096E-002
  -5.0231866266422107E-002
  -4.4297908551826706E-002
  -3.8061686974689854E-002
  -3.1634312707393739E-002
  -2.4792758732681296E-002
  -1.7336447226012699E-002
  -9.4449870813938970E-003
  -9.3390684388854651E-003
 -0.10440014378052039     
 -0.10406319330258916     
  -9.7128277280858238E-002
  -9.0952338738192140E-002
  -8.5072528523624499E-002
  -7.9294938678934876E-002
  -7.3480151288035159E-002
  -6.7860304098585386E-002
  -6.2399818800446115E-002
  -5.7167889427091965E-002
  -5.2092841175074948E-002
  -4.6744090728273680E-002
  -4.1341545494620636E-002
  -3.5884943561556817E-002
  -3.0434862269175696E-002
  -2.4603817013001211E-002
  -1.8493115295705298E-002
  -1.2117275701958889E-002
  -5.0618907219610520E-003
   1.5521232069707197E-003
   1.1985743909469220E-003
  -9.1056510129929547E-002
  -9.0661412013497436E-002
  -8.3407181568477165E-002