# vtk DataFile Version 2.0
3D Unstructured Grid of Linear Triangles
ASCII
DATASET UNSTRUCTURED_GRID
FIELD FieldData  1
TIME 1 1 double
        7200.00000
POINTS     7056 float
      0.00000000E+00  1.00000000E+01  1.00000000E+00
      5.00000000E-01  1.00000000E+01  9.93333333E-01
      1.00000000E+00  1.00000000E+01  9.83333333E-01
      1.50000000E+00  1.00000000E+01  9.73333333E-01
      2.00000000E+00  1.00000000E+01  9.63333333E-01
      2.50000000E+00  1.00000000E+01  9.53333333E-01
      3.00000000E+00  1.00000000E+01  9.43333333E-01
      3.50000000E+00  1.00000000E+01  9.33333333E-01
      4.00000000E+00  1.00000000E+01  9.23333333E-01
      4.50000000E+00  1.00000000E+01  9.13333333E-01
      5.00000000E+00  1.00000000E+01  9.03333333E-01
      5.50000000E+00  1.00000000E+01  8.93333333E-01
      6.00000000E+00  1.00000000E+01  8.83333333E-01
      6.50000000E+00  1.00000000E+01  8.73333333E-01
      7.00000000E+00  1.00000000E+01  8.63333333E-01
      7.50000000E+00  1.00000000E+01  8.53333333E-01
      8.00000000E+00  1.00000000E+01  8.43333333E-01
      8.50000000E+00  1.00000000E+01  8.33333333E-01
      9.00000000E+00  1.00000000E+01  8.23333333E-01
      9.50000000E+00  1.00000000E+01  8.13333333E-01
      1.00000000E+01  1.00000000E+01  8.10000000E-01
      0.00000000E+00  9.50000000E+00  9.83333333E-01
      5.00000000E-01  9.50000000E+00  9.82500000E-01
      1.00000000E+00  9.50000000E+00  9.72500000E-01
      1.50000000E+00  9.50000000E+00  9.62500000E-01
      2.00000000E+00  9.50000000E+00  9.52500000E-01
      2.50000000E+00  9.50000000E+00  9.42500000E-01
      3.00000000E+00  9.50000000E+00  9.32500000E-01
      3.50000000E+00  9.50000000E+00  9.22500000E-01
      4.00000000E+00  9.50000000E+00  9.12500000E-01
      4.50000000E+00  9.50000000E+00  9.02500000E-01
      5.00000000E+00  9.50000000E+00  8.92500000E-01
      5.50000000E+00  9.50000000E+00  8.82500000E-01
      6.00000000E+00  9.50000000E+00  8.72500000E-01
      6.50000000E+00  9.50000000E+00  8.62500000E-01
      7.00000000E+00  9.50000000E+00  8.52500000E-01
      7.50000000E+00  9.50000000E+00  8.42500000E-01
      8.00000000E+00  9.50000000E+00  8.32500000E-01
      8.50000000E+00  9.50000000E+00  8.22500000E-01
      9.00000000E+00  9.50000000E+00  8.12500000E-01
      9.50000000E+00  9.50000000E+00  8.02500000E-01
      1.00000000E+01  9.50000000E+00  8.01666667E-01
      0.00000000E+00  9.00000000E+00  9.58333333E-01
      5.00000000E-01  9.00000000E+00  9.57500000E-01
      1.00000000E+00  9.00000000E+00  9.47500000E-01
      1.50000000E+00  9.00000000E+00  9.37500000E-01
      2.00000000E+00  9.00000000E+00  9.27500000E-01
      2.50000000E+00  9.00000000E+00  9.17500000E-01
      3.00000000E+00  9.00000000E+00  9.07500000E-01
      3.50000000E+00  9.00000000E+00  8.97500000E-01
      4.00000000E+00  9.00000000E+00  8.87500000E-01
      4.50000000E+00  9.00000000E+00  8.77500000E-01
      5.00000000E+00  9.00000000E+00  8.67500000E-01
      5.50000000E+00  9.00000000E+00  8.57500000E-01
      6.00000000E+00  9.00000000E+00  8.47500000E-01
      6.50000000E+00  9.00000000E+00  8.37500000E-01
      7.00000000E+00  9.00000000E+00  8.27500000E-01
      7.50000000E+00  9.00000000E+00  8.17500000E-01
      8.00000000E+00  9.00000000E+00  8.07500000E-01
      8.50000000E+00  9.00000000E+00  7.97500000E-01
      9.00000000E+00  9.00000000E+00  7.87500000E-01
      9.50000000E+00  9.00000000E+00  7.77500000E-01
      1.00000000E+01  9.00000000E+00  7.76666667E-01
      0.00000000E+00  8.50000000E+00  9.33333333E-01
      5.00000000E-01  8.50000000E+00  9.32500000E-01
      1.00000000E+00  8.50000000E+00  9.22500000E-01
      1.50000000E+00  8.50000000E+00  9.12500000E-01
      2.00000000E+00  8.50000000E+00  9.02500000E-01
      2.50000000E+00  8.50000000E+00  8.92500000E-01
      3.00000000E+00  8.50000000E+00  8.82500000E-01
      3.50000000E+00  8.50000000E+00  8.72500000E-01
      4.00000000E+00  8.50000000E+00  8.62500000E-01
      4.50000000E+00  8.50000000E+00  8.52500000E-01
      5.00000000E+00  8.50000000E+00  8.42500000E-01
      5.50000000E+00  8.50000000E+00  8.32500000E-01
      6.00000000E+00  8.50000000E+00  8.22500000E-01
      6.50000000E+00  8.50000000E+00  8.12500000E-01
      7.00000000E+00  8.50000000E+00  8.02500000E-01
      7.50000000E+00  8.50000000E+00  7.92500000E-01
      8.00000000E+00  8.50000000E+00  7.82500000E-01
      8.50000000E+00  8.50000000E+00  7.72500000E-01
      9.00000000E+00  8.50000000E+00  7.62500000E-01
      9.50000000E+00  8.50000000E+00  7.52500000E-01
      1.00000000E+01  8.50000000E+00  7.51666667E-01
      0.00000000E+00  8.00000000E+00  9.08333333E-01
      5.00000000E-01  8.00000000E+00  9.07500000E-01
      1.00000000E+00  8.00000000E+00  8.97500000E-01
      1.50000000E+00  8.00000000E+00  8.87500000E-01
      2.00000000E+00  8.00000000E+00  8.77500000E-01
      2.50000000E+00  8.00000000E+00  8.67500000E-01
      3.00000000E+00  8.00000000E+00  8.57500000E-01
      3.50000000E+00  8.00000000E+00  8.47500000E-01
      4.00000000E+00  8.00000000E+00  8.37500000E-01
      4.50000000E+00  8.00000000E+00  8.27500000E-01
      5.00000000E+00  8.00000000E+00  8.17500000E-01
      5.50000000E+00  8.00000000E+00  8.07500000E-01
      6.00000000E+00  8.00000000E+00  7.97500000E-01
      6.50000000E+00  8.00000000E+00  7.87500000E-01
      7.00000000E+00  8.00000000E+00  7.77500000E-01
      7.50000000E+00  8.00000000E+00  7.67500000E-01
      8.00000000E+00  8.00000000E+00  7.57500000E-01
      8.50000000E+00  8.00000000E+00  7.47500000E-01
      9.00000000E+00  8.00000000E+00  7.37500000E-01
      9.50000000E+00  8.00000000E+00  7.27500000E-01
      1.00000000E+01  8.00000000E+00  7.26666667E-01
      0.00000000E+00  7.50000000E+00  8.83333333E-01
      5.00000000E-01  7.50000000E+00  8.82500000E-01
      1.00000000E+00  7.50000000E+00  8.72500000E-01
      1.50000000E+00  7.50000000E+00  8.62500000E-01
      2.00000000E+00  7.50000000E+00  8.52500000E-01
      2.50000000E+00  7.50000000E+00  8.42500000E-01
      3.00000000E+00  7.50000000E+00  8.32500000E-01
      3.50000000E+00  7.50000000E+00  8.22500000E-01
      4.00000000E+00  7.50000000E+00  8.12500000E-01
      4.50000000E+00  7.50000000E+00  8.02500000E-01
      5.00000000E+00  7.50000000E+00  7.92500000E-01
      5.50000000E+00  7.50000000E+00  7.82500000E-01
      6.00000000E+00  7.50000000E+00  7.72500000E-01
      6.50000000E+00  7.50000000E+00  7.62500000E-01
      7.00000000E+00  7.50000000E+00  7.52500000E-01
      7.50000000E+00  7.50000000E+00  7.42500000E-01
      8.00000000E+00  7.50000000E+00  7.32500000E-01
      8.50000000E+00  7.50000000E+00  7.22500000E-01
      9.00000000E+00  7.50000000E+00  7.12500000E-01
      9.50000000E+00  7.50000000E+00  7.02500000E-01
      1.00000000E+01  7.50000000E+00  7.01666667E-01
      0.00000000E+00  7.00000000E+00  8.58333333E-01
      5.00000000E-01  7.00000000E+00  8.57500000E-01
      1.00000000E+00  7.00000000E+00  8.47500000E-01
      1.50000000E+00  7.00000000E+00  8.37500000E-01
      2.00000000E+00  7.00000000E+00  8.27500000E-01
      2.50000000E+00  7.00000000E+00  8.17500000E-01
      3.00000000E+00  7.00000000E+00  8.07500000E-01
      3.50000000E+00  7.00000000E+00  7.97500000E-01
      4.00000000E+00  7.00000000E+00  7.87500000E-01
      4.50000000E+00  7.00000000E+00  7.77500000E-01
      5.00000000E+00  7.00000000E+00  7.67500000E-01
      5.50000000E+00  7.00000000E+00  7.57500000E-01
      6.00000000E+00  7.00000000E+00  7.47500000E-01
      6.50000000E+00  7.00000000E+00  7.37500000E-01
      7.00000000E+00  7.00000000E+00  7.27500000E-01
      7.50000000E+00  7.00000000E+00  7.17500000E-01
      8.00000000E+00  7.00000000E+00  7.07500000E-01
      8.50000000E+00  7.00000000E+00  6.97500000E-01
      9.00000000E+00  7.00000000E+00  6.87500000E-01
      9.50000000E+00  7.00000000E+00  6.77500000E-01
      1.00000000E+01  7.00000000E+00  6.76666667E-01
      0.00000000E+00  6.50000000E+00  8.33333333E-01
      5.00000000E-01  6.50000000E+00  8.32500000E-01
      1.00000000E+00  6.50000000E+00  8.22500000E-01
      1.50000000E+00  6.50000000E+00  8.12500000E-01
      2.00000000E+00  6.50000000E+00  8.02500000E-01
      2.50000000E+00  6.50000000E+00  7.92500000E-01
      3.00000000E+00  6.50000000E+00  7.82500000E-01
      3.50000000E+00  6.50000000E+00  7.72500000E-01
      4.00000000E+00  6.50000000E+00  7.62500000E-01
      4.50000000E+00  6.50000000E+00  7.52500000E-01
      5.00000000E+00  6.50000000E+00  7.42500000E-01
      5.50000000E+00  6.50000000E+00  7.32500000E-01
      6.00000000E+00  6.50000000E+00  7.22500000E-01
      6.50000000E+00  6.50000000E+00  7.12500000E-01
      7.00000000E+00  6.50000000E+00  7.02500000E-01
      7.50000000E+00  6.50000000E+00  6.92500000E-01
      8.00000000E+00  6.50000000E+00  6.82500000E-01
      8.50000000E+00  6.50000000E+00  6.72500000E-01
      9.00000000E+00  6.50000000E+00  6.62500000E-01
      9.50000000E+00  6.50000000E+00  6.52500000E-01
      1.00000000E+01  6.50000000E+00  6.51666667E-01
      0.00000000E+00  6.00000000E+00  8.08333333E-01
      5.00000000E-01  6.00000000E+00  8.07500000E-01
      1.00000000E+00  6.00000000E+00  7.97500000E-01
      1.50000000E+00  6.00000000E+00  7.87500000E-01
      2.00000000E+00  6.00000000E+00  7.77500000E-01
      2.50000000E+00  6.00000000E+00  7.67500000E-01
      3.00000000E+00  6.00000000E+00  7.57500000E-01
      3.50000000E+00  6.00000000E+00  7.47500000E-01
      4.00000000E+00  6.00000000E+00  7.37500000E-01
      4.50000000E+00  6.00000000E+00  7.27500000E-01
      5.00000000E+00  6.00000000E+00  7.17500000E-01
      5.50000000E+00  6.00000000E+00  7.07500000E-01
      6.00000000E+00  6.00000000E+00  6.97500000E-01
      6.50000000E+00  6.00000000E+00  6.87500000E-01
      7.00000000E+00  6.00000000E+00  6.77500000E-01
      7.50000000E+00  6.00000000E+00  6.67500000E-01
      8.00000000E+00  6.00000000E+00  6.57500000E-01
[...]
POINT_DATA     7056
SCALARS pressure float
LOOKUP_TABLE default
 -0.19329598985881713     
 -0.19200204188304898     
 -0.19180226573503317     
 -0.19166106991212639     
 -0.19148111923749697     
 -0.19133574177773685     
 -0.19119187319154382     
 -0.19106099657683193     
 -0.19092076900600541     
 -0.19078368943584259     
 -0.19063313806712706     
 -0.19045557935318916     
 -0.19024715212234267     
 -0.18998777468633232     
 -0.18965742542816322     
 -0.18922769731416661     
 -0.18865874650777567     
 -0.18786699122078951     
 -0.18717457838675128     
 -0.18434942759050169     
 -0.18414743492445926     
 -0.19124386713810113     
 -0.19008255164105753     
 -0.18915167530422816     
 -0.18938751095385339     
 -0.18937753382559180     
 -0.18937906530840420     
 -0.18936476242148356     
 -0.18933125700808023     
 -0.18927806611862583     
 -0.18919129364761308     
 -0.18907242239378794     
 -0.18890629390381658     
 -0.18867965790602403     
 -0.18837364018399855     
 -0.18795801702982945     
 -0.18740119040450876     
 -0.18665974755517786     
 -0.18565956616027876     
 -0.18455265706442955     
 -0.18172639761393558     
 -0.18185516836905979     
 -0.19043025737994970     
 -0.18924347838649339     
 -0.18793463013407008     
 -0.18816857890625377     
 -0.18793993230040421     
 -0.18774234371326240     
 -0.18753454485806251     
 -0.18730511650673734     
 -0.18704878834472721     
 -0.18675231513836801     
 -0.18640236406731620     
 -0.18598058738079340     
 -0.18546538692035103     
 -0.18482616391994897     
 -0.18402839588893244     
 -0.18302748765804033     
 -0.18177218556988906     
 -0.18019439422628811     
 -0.17842674949966406     
 -0.17492817070897279     
 -0.17407696415958679     
 -0.18978070491140436     
 -0.18925637341169063     
 -0.18771179830957391     
 -0.18784184578259927     
 -0.18747072875793261     
 -0.18713354717621999     
 -0.18676195883156774     
 -0.18634734027730754     
 -0.18587711557207198     
 -0.18533628439811703     
 -0.18470306867606415     
 -0.18395584489457137     
 -0.18306237345001236     
 -0.18198738389546856     
 -0.18068735169855496     
 -0.17911535715185561     
 -0.17722549881521255     
 -0.17496784910981425     
 -0.17244439217174776     
 -0.16819601482125079     
 -0.16742157889920090     
 -0.18902525376578902     
 -0.18882435631912450     
 -0.18691491482534078     
 -0.18685179113117376     
 -0.18629558766680507     
 -0.18574830642860737     
 -0.18514655149266573     
 -0.18447567553688454     
 -0.18372006704255167     
 -0.18285776808905768     
 -0.18186421050784171     
 -0.18070713600726920     
 -0.17935000769243020     
 -0.17775337387048915     
 -0.17587813888241310     
 -0.17368573856427169     
 -0.17112951459167858     
 -0.16815329186656147     
 -0.16481060280119089     
 -0.15975898910438241     
 -0.15899831973037748     
 -0.18808890998823832     
 -0.18808808993181753     
 -0.18585581857300276     
 -0.18552196260941847     
 -0.18471319443245190     
 -0.18388206566988599     
 -0.18296902793953021     
 -0.18195555377386913     
 -0.18082069565082032     
 -0.17953721660560165     
 -0.17807472260084065     
 -0.17640088129172388     
 -0.17448496546047282     
 -0.17229027392871940     
 -0.16977156843577787     
 -0.16688058981063872     
 -0.16356377138476941     
 -0.15975906063732240     
 -0.15546371840752080     
 -0.14953459986002743     
 -0.14888141182107859     
 -0.18683113590370509     
 -0.18690776366416056     
 -0.18434913827108665     
 -0.18365420616656339     
 -0.18251221190612138     
 -0.18130806655840423     
 -0.17998797928261290     
 -0.17852965330849180     
 -0.17690931842425214     
 -0.17510305166381873     
 -0.17308632875032134     
 -0.17082453193730490     
 -0.16827817522436758     
 -0.16540347107858505     
 -0.16214993305410880     
 -0.15845891562597442     
 -0.15425578653454833     
 -0.14952368481646255     
 -0.14435275278050294     
 -0.13783447925829975     
 -0.13725378924825041     
 -0.18506922655730182     
 -0.18513160118660449     
 -0.18221270375047555     
 -0.18104735682420728     
 -0.17946528255316577     
 -0.17777691808523718     
 -0.17593928896004907     
 -0.17393756780143024     
 -0.17174990768525328     
 -0.16934698567588632     
 -0.16669613272131031     
 -0.16375918862188965     
 -0.16049114282138230     
 -0.15683413051273540     
 -0.15272559941173636     
 -0.14819123092363501     
 -0.14324029710281147     
 -0.13783348784811789     
 -0.13195900573359201     
 -0.12490927750495921     
 -0.12432287142813418     
 -0.18256195993880844     
 -0.18253309805296231     
 -0.17917671057033657     
 -0.17741478980500702     
 -0.17527508180851581     
 -0.17300393749305057     
 -0.17056501777933045     
 -0.16793606288750210     
 -0.16509135797145960     
 -0.16199904476257110     
 -0.15861907945277456     
 -0.15489649184494045     
 -0.15080874529474633     
 -0.14639909599959880     
 -0.14164053891707959     
 -0.13649709105646438     
 -0.13093164088798245     
 -0.12490144770698244     
 -0.11840869815425452     
 -0.11069272336486034     
 -0.11007326399941682     
 -0.17897320929990257     
 -0.17878281212709135     
 -0.17491129606077216     
 -0.17245024909065423     
 -0.16965721621515820     
 -0.16670443829514819     
 -0.16356176649232068     
 -0.16020466111868020     
 -0.15659465366197814     
 -0.15269431769502945     
 -0.14854419233904431     
 -0.14415436113354552     
 -0.13949043790532925     
 -0.13452350176809402     
 -0.12921204812628542     
 -0.12352513941885057     
 -0.11743773116063358     
 -0.11064665011140545     
 -0.10323426243746003     
  -9.4967052977292160E-002
  -9.4329333154688444E-002
 -0.17393805451278649     
 -0.17354516867546452     
 -0.16909839905940241     
 -0.16582302948962035     
 -0.16225643980070151     
 -0.15850483820952016     
 -0.15452815177275797     
 -0.15034512973116643     
 -0.14601282790919543     
 -0.14151140187000211     
 -0.13681794373251632     
 -0.13190424094811301     
 -0.12673369072998175     
 -0.12130046691895040     
 -0.11552434873931845     
 -0.10911331694671357     
 -0.10224656335617373     
  -9.4943844139833450E-002
  -8.7228978807457835E-002
  -7.8475258499893119E-002
  -7.7829963671203789E-002
 -0.16704128248066696     
 -0.16647249022695476     
 -0.16133075334847230     
 -0.15710544761080644     
 -0.15261523420593487     
 -0.14802497461149511     
 -0.14335516321755701     
 -0.13858886122023234     
 -0.13371212229943180     
 -0.12869791414597168     
 -0.12354001091907350     
 -0.11821698839491877     
 -0.11251854306918085     
 -0.10642009970138061     
 -0.10001167608753557     
  -9.3312657949071662E-002
  -8.6243018439549651E-002
  -7.8514639451564533E-002
  -7.0276753763978295E-002
  -6.1494259131750627E-002
  -6.0963367197460108E-002
 -0.15774942034152753     
 -0.15711359277522036     
 -0.15111958834211636     
 -0.14598615862094397     
 -0.14079685755251437     
 -0.13558676276345558     
 -0.13034332546155261     
 -0.12506270425774474     
 -0.11975265036929074     
 -0.11428872458178337     
 -0.10849994700140696     
 -0.10256558223659168     
  -9.6490921981638125E-002
  -9.0294731568426115E-002
  -8.3688776050003993E-002
  -7.6704841658518527E-002
  -6.9338550555499867E-002
  -6.1669425366051051E-002
  -5.3484451965303499E-002
  -4.4623456897277994E-002
  -4.4133332494189527E-002
 -0.14581606443421227     
 -0.14522651501641576     
 -0.13865715078078789     
 -0.13281911205597480     
 -0.12700904514533443     
 -0.12127591954728656     
 -0.11555748278623028     
 -0.10960917235089265     
 -0.10364759369879527     
  -9.7713927766301112E-002
  -9.1809216465724930E-002
  -8.5791985829788683E-002
  -7.9519815723928466E-002
  -7.3088678837686091E-002
  -6.6489444971624109E-002
  -5.9792196616460354E-002
  -5.2557172455366070E-002
  -4.4905322553042970E-002
  -3.6837580977923730E-002
  -2.8361660039099887E-002
  -2.8091652097836491E-002
 -0.13178517649666946     
 -0.13119485991628457     
 -0.12413528962710994     
 -0.11772256512020393     
 -0.11119633935569931     
 -0.10468631810255517     
  -9.8332213410576658E-002
  -9.2166059017887658E-002
  -8.6088148017423968E-002
  -7.9947414721553464E-002
  -7.3861018861218292E-002
  -6.7814325621933846E-002
  -6.1794759936597402E-002
  -5.5673243055808508E-002
  -4.9319104878362420E-002
  -4.2731755290623730E-002
  -3.5873664741465874E-002
  -2.8577945900536989E-002
  -2.0460598059899991E-002
  -1.3137777672198482E-002
  -1.3325240875782626E-002
 -0.11581019155458862     
 -0.11520778767778020     
 -0.10736555078998053     
 -0.10007862339814387     
  -9.3107344574537579E-002
  -8.6363243620211014E-002
  -7.9634017909229721E-002
  -7.3130200805436502E-002
  -6.6953070694619907E-002
  -6.1122345293606023E-002
  -5.5390700613688920E-002
  -4.9638022051131145E-002
  -4.3885748068878586E-002
  -3.8093610334745287E-002
  -3.2328446084346089E-002
  -2.6271959252216152E-002
  -1.9497068865503092E-002
  -1.2745479036579141E-002
   1.1214546119872680E-004
   1.0937159979115172E-004
  -1.4521285063134703E-003
  -9.7100854081259458E-002
  -9.6552403983149571E-002
  -8.8536024142705311E-002
  -8.0707653448609570E-002
  -7.3237212938540255E-002
  -6.6228733314926569E-002
  -5.9668264159601636E-002
  -5.3176278777857820E-002
  -4.7107904612613508E-002
  -4.1645380103161239E-002
  -3.6527573850597128E-002
  -3.1445175558989381E-002
  -2.6265612319105090E-002
  -2.0707907795756774E-002
  -1.5869068612461918E-002
  -1.0618535644188522E-002
   3.6398742635749905E-005
   8.7933733567557241E-004
   2.4700328932901337E-003
   1.8261921457633050E-003
   6.2626235845243813E-004
  -7.6611492476710702E-002
  -7.6066907949451742E-002
  -6.7552859036900670E-002
  -5.9762965580987613E-002
  -5.2245176006520642E-002
  -4.5256375286444828E-002
  -3.8641452197612267E-002
  -3.2220694657981115E-002
  -2.6231749932240866E-002
  -2.1721361097713613E-002
  -1.7747378952236194E-002
  -1.3816966624374361E-002
  -9.3987008712082612E-003
   3.3834527148201529E-005
   7.0706846558739388E-004
   1.5381208140929320E-003
   2.4169005000283937E-003
   3.4963442215150890E-003
   5.8650737485418988E-003
   5.0609255989467082E-003
   2.4679061351769718E-003
  -5.4596997802452342E-002
  -5.4093596732683678E-002
  -4.5372797758023359E-002
  -3.7511783490168787E-002
  -3.0366959307872317E-002
  -2.3798253076754556E-002
  -1.6427051173499359E-002
  -7.6473066017637235E-003
   3.4216414189398056E-004
   1.0932800690210197E-003
   1.8122038146642784E-003
   2.4836244800724118E-003
   3.1771492341257728E-003
   3.8998469343318846E-003
   4.8336754572633790E-003
   6.1265839719371685E-003
   7.4227311729247042E-003
   8.5580135589598053E-003
   1.0235719137673339E-002
   8.0606841941648615E-003
   4.6303257394124456E-003
  -3.1202579451295724E-002
  -3.0748403330498462E-002
  -2.2117062200287141E-002
  -1.4533776455336007E-002
  -8.0891028884737069E-003
  -3.0200604916874635E-003
   7.5487489981959145E-004
   1.7854805870958005E-003
   2.6334857664486741E-003
   3.5642059977433835E-003
   4.4630082798860935E-003
   5.2282005816291022E-003
   5.9819885368481230E-003
   6.7275365728822530E-003
   7.3842504381172206E-003
   7.9771010498457702E-003
   8.6182571631482977E-003
   9.3024908925404097E-003
   1.0232987861107700E-002
   9.8030422983465728E-003
   6.7658994715910793E-003
  -2.3361204254756938E-002
  -2.0461626879664647E-002
  -1.1961682050458488E-002
  -4.6609846849013162E-003
   1.9734468689446372E-005
   9.9677489119345545E-005
   8.8266328897591807E-004
   2.9266153205688302E-003
   4.3631184582777031E-003
   5.0981835635510965E-003
   5.4760090307813753E-003
   5.7312767911569034E-003
   5.9352776394166378E-003
   6.1237956057798937E-003
   6.3191704071673500E-003
   6.5412184229574639E-003
   6.8075535502440084E-003
   7.1376717163860763E-003
   7.6081912246126716E-003
   8.0947033390915170E-003
   8.2169352014801866E-003
 -0.18744710764820660     
 -0.18619487410672139     
 -0.18599524350141777     
 -0.18585327291350756     
 -0.18567250580693817     
 -0.18552626842996200     
 -0.18538157293731464     
 -0.18524992203766755     
 -0.18510900438298103     
 -0.18497128763420501     
 -0.18482014909218164     
 -0.18464203829009523     
 -0.18443304959700621     
 -0.18417306884937332     
 -0.18384203261709728     
 -0.18341149785650487     
 -0.18284158983890458     
 -0.18204889985402453     
 -0.18135440120287660     
 -0.17852705236883748     
 -0.17841335106861719     
 -0.18544390172394326     
 -0.18435681849499916     
 -0.18342792874133590     
 -0.18366358658151338     
 -0.18365375787878693     
 -0.18365547664111270     
 -0.18364144396371923     
 -0.18360823380422822     
 -0.18355529775022103     
 -0.18346871099549145     
 -0.18334988986681264     
 -0.18318363645606656     
 -0.18295665461757510     
 -0.18265003147267578     
 -0.18223353592042202     
 -0.18167556127585643     
 -0.18093270891039392     
 -0.17993103419881781     
 -0.17882158712210552     
 -0.17599363347567176     
 -0.17620825249505370     
 -0.18463126843903810     
 -0.18352451029669328     
 -0.18221837015122491     
 -0.18245197694945167     
 -0.18222340254980238     
 -0.18202573701288893     
 -0.18181783058766746     
 -0.18158821506449768     
 -0.18133157645487485     
 -0.18103464138039846     
 -0.18068404052403123     
 -0.18026140422834327     
 -0.17974511612828781     
 -0.17910458115933151     
 -0.17830528356955791     
 -0.17730264488015038     
 -0.17604540021599427     
 -0.17446548711191551     
 -0.17269427243404983     
 -0.16919312778200921     
 -0.16842713548630028     
 -0.18397953424269109     
 -0.18353817930007810     
 -0.18199550914076781     
 -0.18212555181256812     
 -0.18175461342827312     
 -0.18141730256537916     
 -0.18104546494013776     
 -0.18063040644468278     
 -0.18015952414644110     
 -0.17961779831531569     
 -0.17898345417942349     
 -0.17823486465359939     
 -0.17733980449252090     
 -0.17626299146250837     
 -0.17496084876107390     
 -0.17338631246280301     
 -0.17149316727435293     
 -0.16923136510385203     
 -0.16670235417177945     
 -0.16245071325383981     
 -0.16175661991347004     
 -0.18322256271561357     
 -0.18310730742146158     
 -0.18119868077078552     
 -0.18113554687560932     
 -0.18057925933076815     
 -0.18003152128151317     
 -0.17942910478500093     
 -0.17875732878080289     
 -0.17800058386475823     
 -0.17713692477672127     
 -0.17614177518316673     
 -0.17498283876649862     
 -0.17362347144774140     
 -0.17202399555908082     
 -0.17014500532905152     
 -0.16794804718516770     
 -0.16538675522568089     
 -0.16240490828218423     
 -0.15905529734253696     
 -0.15399944165648607     
 -0.15331261004759988     
 -0.18228506714345732     
 -0.18237151286821776     
 -0.18013896137028471     
 -0.17980482110974680     
 -0.17899552243480787     
 -0.17816348609278632     
 -0.17724933559656156     
 -0.17623452778822379     
 -0.17509808963396548     
 -0.17381270482545277     
 -0.17234781012931047     
 -0.17067078300874625     
 -0.16875073716120367     
 -0.16655130671282836     
 -0.16402726651985614     
 -0.16113031504339265     
 -0.15780696658985910     
 -0.15399540964790709     
 -0.14969263565017193     
 -0.14375556993876634     
 -0.14316940309325557     
 -0.18102597104079154     
 -0.18119027757436626     
 -0.17863057579514396     
 -0.17793486999136504     
 -0.17679188264442230     
 -0.17558641762824201     
 -0.17426475274596820     
 -0.17280444347528517     
 -0.17118147097639277     
 -0.16937163680262363     
 -0.16735057194354977     
 -0.16508387138732217     
 -0.16253194618103176     
 -0.15965104083368367     
 -0.15639074197974212     
 -0.15269276508840726     
 -0.14848223155165324     
 -0.14373815849165797     
 -0.13855321089028447     
 -0.13202428142145495     
 -0.13150318068448952     
 -0.17926193233591883     
 -0.17941146848835415     
 -0.17649110977447785     
 -0.17532443148751217     
 -0.17374082022728554     
 -0.17205031476459395     
 -0.17020971637564319     
 -0.16820409531592867     
 -0.16601195500185614     
 -0.16360392152606468     
 -0.16094728691231946     
 -0.15800395361473871     
 -0.15472904578238136     
 -0.15106510426480488     
 -0.14694798179717661     
 -0.14240074191078536     
 -0.13743635445264135     
 -0.13201565864173515     
 -0.12612649500948364     
 -0.11906596919310276     
 -0.11852982083413602     
 -0.17675134461473394     
 -0.17680865885835778     
 -0.17345035724411165     
 -0.17168589787061567     
 -0.16954289041982817     
 -0.16726760648833763     
 -0.16482399602162398     
 -0.16218968206374024     
 -0.15933898281703607     
 -0.15624010418789541     
 -0.15285335124259564     
 -0.14912364202834824     
 -0.14502510003276650     
 -0.14060255887857398     
 -0.13583080512364712     
 -0.13067368073204738     
 -0.12509428448938742     
 -0.11904933399012514     
 -0.11254162223782331     
 -0.10482161358180613     
 -0.10424587823554049     
 -0.17315730648275576     
 -0.17305120514449956     
 -0.16917578488999113     
 -0.16671013139450239     
 -0.16391217313505521     
 -0.16095375097633893     
 -0.15780484068244940     
 -0.15444108750722893     
 -0.15082439030028250     
 -0.14691551172799261     
 -0.14275306280564179     
 -0.13835051058222067     
 -0.13367353366590889     
 -0.12869331644397194     
 -0.12336842482013159     
 -0.11766696904455846     
 -0.11156611960072080     
 -0.10476593766602110     
  -9.7339062379020624E-002
  -8.9060894416010422E-002
  -8.8454274427867463E-002
 -0.16811306749170357     
 -0.16780037719372759     
 -0.16334856092368893     
 -0.16006705091367762     
 -0.15649400902479493     
 -0.15273580850955720     
 -0.14875200109539410     
 -0.14455774938975022     
 -0.14021296039875866     
 -0.13569893490212068     
 -0.13099252371363632     
 -0.12606588065269378     
 -0.12088197353403329     
 -0.11543491083880242     
 -0.10964840164479507     
 -0.10322657613875781     
  -9.6346260181302129E-002
  -8.9028775350338180E-002
  -8.1302983595399753E-002
  -7.2540432819769102E-002
  -7.1917564424802266E-002
 -0.16120413306494052     
 -0.16070936694973975     
 -0.15556219811605351     
 -0.15133014178461077     
 -0.14683099226843377     
 -0.14222822628665963     
 -0.13754580754543699     
 -0.13276670631066612     
 -0.12787718673751869     
 -0.12285014440364457     
 -0.11767854795176376     
 -0.11234315447263314     
 -0.10663744958578099     
 -0.10052619304994509     
  -9.4104710242770284E-002
  -8.7391898195045586E-002
  -8.0312551811363861E-002
  -7.2572188843632202E-002
  -6.4323163288826063E-002
  -5.5532871713809835E-002
  -5.5013907685667635E-002
 -0.15189841928670253     
 -0.15132941034727548     
 -0.14532633679318893     
 -0.14017990601263614     
 -0.13497778663535262     
 -0.12975472805038490     
 -0.12449835769467948     
 -0.11920401923103351     
 -0.11388104386407574     
 -0.10840972717538548     
 -0.10260936662619528     
  -9.6662794498448126E-002
  -9.0575422730919591E-002
  -8.4366207060025553E-002
  -7.7752743977217112E-002
  -7.0758587713987658E-002
  -6.3382098085835642E-002
  -5.5702745528916964E-002
  -4.7510845816558109E-002
  -3.8646048039690413E-002
  -3.8162929431957544E-002
 -0.13994138597451355     
 -0.13940898141165545     
 -0.13282885146737983     
 -0.12697752509596469     
 -0.12115373677430818     
 -0.11540681203270069     
 -0.10967863085125835     
 -0.10372039835017914     
  -9.7746559583878512E-002
  -9.1800416428577253E-002
  -8.5883378572135724E-002
  -7.9858511243451571E-002
  -7.3576460200159455E-002
  -6.7136406715663927E-002
  -6.0528677558202099E-002
  -5.3823397937989619E-002
  -4.6582442088096032E-002
  -3.8924203471340346E-002
  -3.0851351710193230E-002
  -2.2373551969039465E-002
  -2.2106165300069428E-002
 -0.12588621343062364     
 -0.12534244615280668     
 -0.11827055636109794     