# vtk DataFile Version 2.0
3D Unstructured Grid of Linear Triangles
ASCII
DATASET UNSTRUCTURED_GRID
FIELD FieldData  1
TIME 1 1 double
        1808.69733
POINTS     7056 float
      0.00000000E+00  1.00000000E+01  1.00000000E+00
      5.00000000E-01  1.00000000E+01  9.93333333E-01
      1.00000000E+00  1.00000000E+01  9.83333333E-01
      1.50000000E+00  1.00000000E+01  9.73333333E-01
      2.00000000E+00  1.00000000E+01  9.63333333E-01
      2.50000000E+00  1.00000000E+01  9.53333333E-01
      3.00000000E+00  1.00000000E+01  9.43333333E-01
      3.50000000E+00  1.00000000E+01  9.33333333E-01
      4.00000000E+00  1.00000000E+01  9.23333333E-01
      4.50000000E+00  1.00000000E+01  9.13333333E-01
      5.00000000E+00  1.00000000E+01  9.03333333E-01
      5.50000000E+00  1.00000000E+01  8.93333333E-01
      6.00000000E+00  1.00000000E+01  8.83333333E-01
      6.50000000E+00  1.00000000E+01  8.73333333E-01
      7.00000000E+00  1.00000000E+01  8.63333333E-01
      7.50000000E+00  1.00000000E+01  8.53333333E-01
      8.00000000E+00  1.00000000E+01  8.43333333E-01
      8.50000000E+00  1.00000000E+01  8.33333333E-01
      9.00000000E+00  1.00000000E+01  8.23333333E-01
      9.50000000E+00  1.00000000E+01  8.13333333E-01
      1.00000000E+01  1.00000000E+01  8.10000000E-01
      0.00000000E+00  9.50000000E+00  9.83333333E-01
      5.00000000E-01  9.50000000E+00  9.82500000E-01
      1.00000000E+00  9.50000000E+00  9.72500000E-01
      1.50000000E+00  9.50000000E+00  9.62500000E-01
      2.00000000E+00  9.50000000E+00  9.52500000E-01
      2.50000000E+00  9.50000000E+00  9.42500000E-01
      3.00000000E+00  9.50000000E+00  9.32500000E-01
      3.50000000E+00  9.50000000E+00  9.22500000E-01
      4.00000000E+00  9.50000000E+00  9.12500000E-01
      4.50000000E+00  9.50000000E+00  9.02500000E-01
      5.00000000E+00  9.50000000E+00  8.92500000E-01
      5.50000000E+00  9.50000000E+00  8.82500000E-01
      6.00000000E+00  9.50000000E+00  8.72500000E-01
      6.50000000E+00  9.50000000E+00  8.62500000E-01
      7.00000000E+00  9.50000000E+00  8.52500000E-01
      7.50000000E+00  9.50000000E+00  8.42500000E-01
      8.00000000E+00  9.50000000E+00  8.32500000E-01
      8.50000000E+00  9.50000000E+00  8.22500000E-01
      9.00000000E+00  9.50000000E+00  8.12500000E-01
      9.50000000E+00  9.50000000E+00  8.02500000E-01
      1.00000000E+01  9.50000000E+00  8.01666667E-01
      0.00000000E+00  9.00000000E+00  9.58333333E-01
      5.00000000E-01  9.00000000E+00  9.57500000E-01
      1.00000000E+00  9.00000000E+00  9.47500000E-01
      1.50000000E+00  9.00000000E+00  9.37500000E-01
      2.00000000E+00  9.00000000E+00  9.27500000E-01
      2.50000000E+00  9.00000000E+00  9.17500000E-01
      3.00000000E+00  9.00000000E+00  9.07500000E-01
      3.50000000E+00  9.00000000E+00  8.97500000E-01
      4.00000000E+00  9.00000000E+00  8.87500000E-01
      4.50000000E+00  9.00000000E+00  8.77500000E-01
      5.00000000E+00  9.00000000E+00  8.67500000E-01
      5.50000000E+00  9.00000000E+00  8.57500000E-01
      6.00000000E+00  9.00000000E+00  8.47500000E-01
      6.50000000E+00  9.00000000E+00  8.37500000E-01
      7.00000000E+00  9.00000000E+00  8.27500000E-01
      7.50000000E+00  9.00000000E+00  8.17500000E-01
      8.00000000E+00  9.00000000E+00  8.07500000E-01
      8.50000000E+00  9.00000000E+00  7.97500000E-01
      9.00000000E+00  9.00000000E+00  7.87500000E-01
      9.50000000E+00  9.00000000E+00  7.77500000E-01
      1.00000000E+01  9.00000000E+00  7.76666667E-01
      0.00000000E+00  8.50000000E+00  9.33333333E-01
      5.00000000E-01  8.50000000E+00  9.32500000E-01
      1.00000000E+00  8.50000000E+00  9.22500000E-01
      1.50000000E+00  8.50000000E+00  9.12500000E-01
      2.00000000E+00  8.50000000E+00  9.02500000E-01
      2.50000000E+00  8.50000000E+00  8.92500000E-01
      3.00000000E+00  8.50000000E+00  8.82500000E-01
      3.50000000E+00  8.50000000E+00  8.72500000E-01
      4.00000000E+00  8.50000000E+00  8.62500000E-01
      4.50000000E+00  8.50000000E+00  8.52500000E-01
      5.00000000E+00  8.50000000E+00  8.42500000E-01
      5.50000000E+00  8.50000000E+00  8.32500000E-01
      6.00000000E+00  8.50000000E+00  8.22500000E-01
      6.50000000E+00  8.50000000E+00  8.12500000E-01
      7.00000000E+00  8.50000000E+00  8.02500000E-01
      7.50000000E+00  8.50000000E+00  7.92500000E-01
      8.00000000E+00  8.50000000E+00  7.82500000E-01
      8.50000000E+00  8.50000000E+00  7.72500000E-01
      9.00000000E+00  8.50000000E+00  7.62500000E-01
      9.50000000E+00  8.50000000E+00  7.52500000E-01
      1.00000000E+01  8.50000000E+00  7.51666667E-01
      0.00000000E+00  8.00000000E+00  9.08333333E-01
      5.00000000E-01  8.00000000E+00  9.07500000E-01
      1.00000000E+00  8.00000000E+00  8.97500000E-01
      1.50000000E+00  8.00000000E+00  8.87500000E-01
      2.00000000E+00  8.00000000E+00  8.77500000E-01
      2.50000000E+00  8.00000000E+00  8.67500000E-01
      3.00000000E+00  8.00000000E+00  8.57500000E-01
      3.50000000E+00  8.00000000E+00  8.47500000E-01
      4.00000000E+00  8.00000000E+00  8.37500000E-01
      4.50000000E+00  8.00000000E+00  8.27500000E-01
      5.00000000E+00  8.00000000E+00  8.17500000E-01
      5.50000000E+00  8.00000000E+00  8.07500000E-01
      6.00000000E+00  8.00000000E+00  7.97500000E-01
      6.50000000E+00  8.00000000E+00  7.87500000E-01
      7.00000000E+00  8.00000000E+00  7.77500000E-01
      7.50000000E+00  8.00000000E+00  7.67500000E-01
      8.00000000E+00  8.00000000E+00  7.57500000E-01
      8.50000000E+00  8.00000000E+00  7.47500000E-01
      9.00000000E+00  8.00000000E+00  7.37500000E-01
      9.50000000E+00  8.00000000E+00  7.27500000E-01
      1.00000000E+01  8.00000000E+00  7.26666667E-01
      0.00000000E+00  7.50000000E+00  8.83333333E-01
      5.00000000E-01  7.50000000E+00  8.82500000E-01
      1.00000000E+00  7.50000000E+00  8.72500000E-01
      1.50000000E+00  7.50000000E+00  8.62500000E-01
      2.00000000E+00  7.50000000E+00  8.52500000E-01
      2.50000000E+00  7.50000000E+00  8.42500000E-01
      3.00000000E+00  7.50000000E+00  8.32500000E-01
      3.50000000E+00  7.50000000E+00  8.22500000E-01
      4.00000000E+00  7.50000000E+00  8.12500000E-01
      4.50000000E+00  7.50000000E+00  8.02500000E-01
      5.00000000E+00  7.50000000E+00  7.92500000E-01
      5.50000000E+00  7.50000000E+00  7.82500000E-01
      6.00000000E+00  7.50000000E+00  7.72500000E-01
      6.50000000E+00  7.50000000E+00  7.62500000E-01
      7.00000000E+00  7.50000000E+00  7.52500000E-01
      7.50000000E+00  7.50000000E+00  7.42500000E-01
      8.00000000E+00  7.50000000E+00  7.32500000E-01
      8.50000000E+00  7.50000000E+00  7.22500000E-01
      9.00000000E+00  7.50000000E+00  7.12500000E-01
      9.50000000E+00  7.50000000E+00  7.02500000E-01
      1.00000000E+01  7.50000000E+00  7.01666667E-01
      0.00000000E+00  7.00000000E+00  8.58333333E-01
      5.00000000E-01  7.00000000E+00  8.57500000E-01
      1.00000000E+00  7.00000000E+00  8.47500000E-01
      1.50000000E+00  7.00000000E+00  8.37500000E-01
      2.00000000E+00  7.00000000E+00  8.27500000E-01
      2.50000000E+00  7.00000000E+00  8.17500000E-01
      3.00000000E+00  7.00000000E+00  8.07500000E-01
      3.50000000E+00  7.00000000E+00  7.97500000E-01
      4.00000000E+00  7.00000000E+00  7.87500000E-01
      4.50000000E+00  7.00000000E+00  7.77500000E-01
      5.00000000E+00  7.00000000E+00  7.67500000E-01
      5.50000000E+00  7.00000000E+00  7.57500000E-01
      6.00000000E+00  7.00000000E+00  7.47500000E-01
      6.50000000E+00  7.00000000E+00  7.37500000E-01
      7.00000000E+00  7.00000000E+00  7.27500000E-01
      7.50000000E+00  7.00000000E+00  7.17500000E-01
      8.00000000E+00  7.00000000E+00  7.07500000E-01
      8.50000000E+00  7.00000000E+00  6.97500000E-01
      9.00000000E+00  7.00000000E+00  6.87500000E-01
      9.50000000E+00  7.00000000E+00  6.77500000E-01
      1.00000000E+01  7.00000000E+00  6.76666667E-01
      0.00000000E+00  6.50000000E+00  8.33333333E-01
      5.00000000E-01  6.50000000E+00  8.32500000E-01
      1.00000000E+00  6.50000000E+00  8.22500000E-01
      1.50000000E+00  6.50000000E+00  8.12500000E-01
      2.00000000E+00  6.50000000E+00  8.02500000E-01
      2.50000000E+00  6.50000000E+00  7.92500000E-01
      3.00000000E+00  6.50000000E+00  7.82500000E-01
      3.50000000E+00  6.50000000E+00  7.72500000E-01
      4.00000000E+00  6.50000000E+00  7.62500000E-01
      4.50000000E+00  6.50000000E+00  7.52500000E-01
      5.00000000E+00  6.50000000E+00  7.42500000E-01
      5.50000000E+00  6.50000000E+00  7.32500000E-01
      6.00000000E+00  6.50000000E+00  7.22500000E-01
      6.50000000E+00  6.50000000E+00  7.12500000E-01
      7.00000000E+00  6.50000000E+00  7.02500000E-01
      7.50000000E+00  6.50000000E+00  6.92500000E-01
      8.00000000E+00  6.50000000E+00  6.82500000E-01
      8.50000000E+00  6.50000000E+00  6.72500000E-01
      9.00000000E+00  6.50000000E+00  6.62500000E-01
      9.50000000E+00  6.50000000E+00  6.52500000E-01
      1.00000000E+01  6.50000000E+00  6.51666667E-01
      0.00000000E+00  6.00000000E+00  8.08333333E-01
      5.00000000E-01  6.00000000E+00  8.07500000E-01
      1.00000000E+00  6.00000000E+00  7.97500000E-01
      1.50000000E+00  6.00000000E+00  7.87500000E-01
      2.00000000E+00  6.00000000E+00  7.77500000E-01
      2.50000000E+00  6.00000000E+00  7.67500000E-01
      3.00000000E+00  6.00000000E+00  7.57500000E-01
      3.50000000E+00  6.00000000E+00  7.47500000E-01
      4.00000000E+00  6.00000000E+00  7.37500000E-01
      4.50000000E+00  6.00000000E+00  7.27500000E-01
      5.00000000E+00  6.00000000E+00  7.17500000E-01
      5.50000000E+00  6.00000000E+00  7.07500000E-01
      6.00000000E+00  6.00000000E+00  6.97500000E-01
      6.50000000E+00  6.00000000E+00  6.87500000E-01
      7.00000000E+00  6.00000000E+00  6.77500000E-01
      7.50000000E+00  6.00000000E+00  6.67500000E-01
      8.00000000E+00  6.00000000E+00  6.57500000E-01
[...]
POINT_DATA     7056
SCALARS pressure float
LOOKUP_TABLE default
 -0.15400349658960791     
 -0.15324807876690419     
 -0.15302771478991944     
 -0.15291965790751469     
 -0.15280378625498281     
 -0.15267522505823269     
 -0.15255513942384860     
 -0.15243391167245110     
 -0.15229831371985372     
 -0.15215718614175811     
 -0.15198282321616918     
 -0.15178861710486005     
 -0.15154588002308597     
 -0.15123426948529831     
 -0.15081955677412803     
 -0.15027588000154402     
 -0.14953811774278664     
 -0.14850745434824064     
 -0.14743506424860645     
 -0.14409922971600084     
 -0.14325599033856687     
 -0.15262053743460524     
 -0.15218451909676337     
 -0.15102973868467598     
 -0.15116948137467315     
 -0.15105595314388889     
 -0.15095762929478687     
 -0.15084590645957768     
 -0.15072501270703267     
 -0.15058384870453609     
 -0.15041764584684547     
 -0.15021422141966470     
 -0.14996259763203024     
 -0.14963343335206761     
 -0.14921430734956809     
 -0.14866543574954408     
 -0.14794100698844775     
 -0.14698067022893471     
 -0.14568481391899765     
 -0.14414652562680660     
 -0.14066720703324684     
 -0.14055203912061301     
 -0.15174553120563955     
 -0.15088773732218860     
 -0.14937339449691273     
 -0.14943187331900498     
 -0.14908385367469942     
 -0.14879164301690648     
 -0.14847792489989481     
 -0.14814551263000486     
 -0.14778079878369002     
 -0.14736830538409407     
 -0.14689580977996519     
 -0.14633650714744389     
 -0.14566359394484871     
 -0.14484150296743681     
 -0.14382259507154863     
 -0.14254554031649080     
 -0.14093507668221655     
 -0.13890274196426508     
 -0.13650327829449252     
 -0.13227575067178418     
 -0.13163001529504606     
 -0.15094122299228280     
 -0.15048064311070056     
 -0.14874844091894782     
 -0.14860260140461429     
 -0.14807062980031194     
 -0.14754412479915455     
 -0.14698937898914607     
 -0.14639167567908087     
 -0.14574341838219937     
 -0.14500807397146689     
 -0.14417714403938650     
 -0.14321780969722794     
 -0.14208758201734545     
 -0.14074478832200416     
 -0.13912650083839276     
 -0.13717339843131796     
 -0.13482669666439956     
 -0.13204657902402711     
 -0.12886561871966995     
 -0.12403884402666121     
 -0.12361394228760994     
 -0.14990402680484122     
 -0.14960692361449407     
 -0.14752475538702980     
 -0.14709405663509756     
 -0.14628502393877391     
 -0.14547451337263559     
 -0.14460694171446464     
 -0.14367491351426670     
 -0.14265835968019067     
 -0.14153447962006113     
 -0.14027078037675042     
 -0.13883156744654943     
 -0.13717044738987957     
 -0.13524350050923514     
 -0.13301525453496077     
 -0.13044245302187046     
 -0.12746536309835566     
 -0.12402098388237716     
 -0.12009428746464094     
 -0.11463779800459460     
 -0.11420671767829844     
 -0.14857703821240839     
 -0.14837443251172375     
 -0.14593652283102690     
 -0.14513145005747713     
 -0.14397394107828865     
 -0.14278591036602820     
 -0.14152742955102154     
 -0.14017610674305553     
 -0.13871294721733363     
 -0.13710652126744594     
 -0.13533007280033035     
 -0.13335442625903951     
 -0.13115583385233820     
 -0.12868479299442123     
 -0.12588645132634740     
 -0.12270202625599221     
 -0.11906781234032884     
 -0.11490301949648445     
 -0.11009750594761629     
 -0.10365239673238738     
 -0.10315757217689818     
 -0.14679727966813688     
 -0.14663120598946711     
 -0.14379606220750546     
 -0.14253124734464281     
 -0.14094560669727013     
 -0.13930239634179128     
 -0.13756266369459508     
 -0.13571400273089546     
 -0.13373823560193770     
 -0.13162875620330011     
 -0.12935715091619862     
 -0.12687792987172397     
 -0.12414697691860027     
 -0.12110987003907797     
 -0.11770500800885596     
 -0.11385492238253662     
 -0.10941528259075013     
 -0.10421681221504378     
  -9.8406326682392603E-002
  -9.1416325129880946E-002
  -9.0888273760817331E-002
 -0.14439546815918236     
 -0.14424251586280537     
 -0.14095627443685918     
 -0.13913365652092646     
 -0.13702314549018252     
 -0.13484076708148751     
 -0.13257698544209170     
 -0.13022909660409163     
 -0.12776790668519147     
 -0.12516135901666764     
 -0.12237135503989105     
 -0.11935142132862880     
 -0.11604573584395590     
 -0.11237371017930751     
 -0.10818272534051843     
 -0.10340012234634545     
  -9.8123886168253072E-002
  -9.2325021430032933E-002
  -8.5878877247768770E-002
  -7.7890595643366950E-002
  -7.7286538771904487E-002
 -0.14114750769061232     
 -0.14102555677439180     
 -0.13719559898721354     
 -0.13472708195465366     
 -0.13205728874786396     
 -0.12935059560490397     
 -0.12657619001004305     
 -0.12370939300203526     
 -0.12072136860719584     
 -0.11757301741048343     
 -0.11421313470650252     
 -0.11054949215754792     
 -0.10644317396752487     
 -0.10194862303281829     
  -9.7084946333093586E-002
  -9.1825811384076361E-002
  -8.6035490236361603E-002
  -7.9296117659802864E-002
  -7.1952646647340454E-002
  -6.3786069604058290E-002
  -6.3253223117205798E-002
 -0.13679277646980045     
 -0.13672086202859995     
 -0.13233654817996121     
 -0.12924226490499177     
 -0.12601093060335442     
 -0.12273970478050461     
 -0.11940107587865617     
 -0.11596277747741972     
 -0.11237172229323024     
 -0.10851592480511035     
 -0.10435124064683540     
  -9.9975628191708882E-002
  -9.5357758896761291E-002
  -9.0484917876250209E-002
  -8.5131835221607208E-002
  -7.9081238849565125E-002
  -7.2577723786512505E-002
  -6.5587428997040093E-002
  -5.8258056279837808E-002
  -4.9641045813711204E-002
  -4.9072107365688865E-002
 -0.13126423336936396     
 -0.13119650551806741     
 -0.12629844008961574     
 -0.12252642977966809     
 -0.11866550219304564     
 -0.11476160038804251     
 -0.11074233006001932     
 -0.10649319211612343     
 -0.10211821878172919     
  -9.7656190724676128E-002
  -9.3096084118247435E-002
  -8.8399961494114485E-002
  -8.3215952958070730E-002
  -7.7670493059322873E-002
  -7.1824739685023731E-002
  -6.5650082842971524E-002
  -5.9296514900422460E-002
  -5.1972049668568214E-002
  -4.4063346598065253E-002
  -3.5727112874909428E-002
  -3.5313094487661283E-002
 -0.12443372005389140     
 -0.12426835444730427     
 -0.11881646005989248     
 -0.11428555533027085     
 -0.10962445705892167     
 -0.10480393052205973     
 -0.10000550158149027     
  -9.5240977564466964E-002
  -9.0522128306379207E-002
  -8.5668545848074193E-002
  -8.0482122470845283E-002
  -7.5209060691526636E-002
  -6.9783600505923540E-002
  -6.4242052129897961E-002
  -5.8595716314687775E-002
  -5.2228434346523599E-002
  -4.5448386326895913E-002
  -3.8290109733111900E-002
  -3.0561703126078317E-002
  -2.2158225486088035E-002
  -2.1810219623787732E-002
 -0.11592561098776791     
 -0.11563870719079701     
 -0.10943189198942788     
 -0.10382967231529268     
  -9.8347425315727099E-002
  -9.3041224755858687E-002
  -8.7885773702550088E-002
  -8.2521393160305864E-002
  -7.7188301516346133E-002
  -7.1912732562932624E-002
  -6.6679185099044760E-002
  -6.1568059086109593E-002
  -5.6262524824859744E-002
  -5.0608001146237640E-002
  -4.4694574136169549E-002
  -3.8584715900635821E-002
  -3.2130738660464092E-002
  -2.5044072808490254E-002
  -1.7198322229727850E-002
  -9.7995396954495759E-003
  -9.7995573014397781E-003
 -0.10495134584755761     
 -0.10455694626117507     
  -9.7609108558802227E-002
  -9.1455908924356774E-002
  -8.5464511876227570E-002
  -7.9433579545696575E-002
  -7.3658254617416208E-002
  -6.8115615416725825E-002
  -6.2875862561433793E-002
  -5.7817696989987427E-002
  -5.2546038913103825E-002
  -4.7293614290997002E-002
  -4.2037946778239632E-002
  -3.6787158856439940E-002
  -3.1177158439174912E-002
  -2.5330279563965656E-002
  -1.8968449733045591E-002
  -1.2016165499640992E-002
   4.4319670597924097E-004
   9.9180222852370274E-004
   6.6012595197124750E-004
  -9.1816467303792851E-002
  -9.1382175556301681E-002
  -8.3871312164911893E-002
  -7.6871392387221113E-002
  -7.0302349609879744E-002
  -6.4228990437547970E-002
  -5.8689704170394236E-002
  -5.3115651386910240E-002
  -4.7800258573598313E-002
  -4.2706810830088079E-002
  -3.7807675389836301E-002
  -3.2956365077383878E-002
  -2.8071393630078413E-002
  -2.3046765704747115E-002
  -1.7474241477688571E-002
  -1.2376377797168447E-002
  -4.8633765570284624E-003
   6.4119707135637603E-004
   2.3048337296817036E-003
   3.0323701820650379E-003
   2.5898699704796479E-003
  -7.6178843938252708E-002
  -7.5706413275076559E-002
  -6.7701445148345529E-002
  -6.0754533416880266E-002
  -5.4193010246583663E-002
  -4.8019999816700014E-002
  -4.2323929615561764E-002
  -3.7151715649033183E-002
  -3.2371777450120306E-002
  -2.7719288692056209E-002
  -2.3089875769655061E-002
  -1.8238843805557323E-002
  -1.4154571909081084E-002
  -9.6756280118016486E-003
   3.0360843271569517E-005
   7.3965036955881270E-004
   1.5743827327338508E-003
   2.6158434048710495E-003
   4.7852435257422906E-003
   5.0984607933549815E-003
   3.9382915151541338E-003
  -5.8823963394934627E-002
  -5.8398626907548330E-002
  -5.0025383111525788E-002
  -4.2893366331777885E-002
  -3.6781159850980648E-002
  -3.1116044599840381E-002
  -2.5674147195448752E-002
  -2.0526150656690292E-002
  -1.6601231281768217E-002
  -1.2916913580593563E-002
  -8.7959895425545904E-003
   1.7997241918300081E-004
   8.2391964964543759E-004
   1.4504661481486623E-003
   2.1249601619282060E-003
   3.0650754284559435E-003
   4.3406835388390668E-003
   5.4918527443282902E-003
   7.3475897269102411E-003
   6.8456930906829654E-003
   5.0510469187648342E-003
  -3.9405806456981940E-002
  -3.8977165832493138E-002
  -3.0371280335668889E-002
  -2.3637062239863053E-002
  -1.8538461436324604E-002
  -1.3937380731023593E-002
  -8.5319266929726693E-003
   2.4487031049618302E-004
   8.9435470006552409E-004
   1.4808334725430639E-003
   2.0053464173363164E-003
   2.6239360095822030E-003
   3.5175474360948505E-003
   4.4525693190641986E-003
   5.3600226520523521E-003
   6.2330570798041721E-003
   7.1726975689462881E-003
   8.0958950016483851E-003
   9.9708526609072149E-003
   8.6338414521395512E-003
   5.9767112641431327E-003
  -1.8800324405258653E-002
  -1.8197631042769214E-002
  -5.6255584431142425E-003
   8.1893259336500857E-004
   1.8606628352468976E-003
   2.6859518072512166E-003
   3.3740885395930416E-003
   4.1139531151334341E-003
   5.0849983973707269E-003
   5.9962451605445402E-003
   6.8343165785779659E-003
   7.5934742687942969E-003
   8.2777400155040030E-003
   8.9450342486610546E-003
   9.6461189169422482E-003
   1.0406969350638416E-002
   1.1287215631087455E-002
   1.2187712434664488E-002
   1.3865002704984072E-002
   1.1003654834177012E-002
   7.0400064640376335E-003
   3.7206532261445965E-003
   3.7618267511192135E-003
   5.3778806948925548E-003
   6.3585476959650885E-003
   7.2736952850109126E-003
   7.8846365128688468E-003
   8.3598528662102919E-003
   8.7200103034216232E-003
   8.9923132257020057E-003
   9.2442206835818309E-003
   9.5117506250338053E-003
   9.8038504369501751E-003
   1.0125828931719278E-002
   1.0482922910492201E-002
   1.0883944216705473E-002
   1.1343815722917228E-002
   1.1892892040877361E-002
   1.2528684504600488E-002
   1.3481647295849237E-002
   1.2922580279843198E-002
   9.1170856598441364E-003
   5.7212719443370070E-003
   6.7433353974356543E-003
   9.7196725247157816E-003
   1.1487863851461808E-002
   1.1241399504703809E-002
   1.0838818560377583E-002
   1.0406738454792775E-002
   1.0033405627827724E-002
   9.7328717209370866E-003
   9.5069530186622682E-003
   9.3520040127647898E-003
   9.2633902603806231E-003
   9.2377749081718197E-003
   9.2741579958549262E-003
   9.3721160358560766E-003
   9.5324448318305013E-003
   9.7616980909440969E-003
   1.0074689941594817E-002
   1.0535225024650673E-002
   1.1119292171627168E-002
   1.1462002401837038E-002
 -0.14817892792233298     
 -0.14747782050838310     
 -0.14725752728354907     
 -0.14714975806834654     
 -0.14703401551003048     
 -0.14690555291768018     
 -0.14678551911358353     
 -0.14666430396940591     
 -0.14652867818101878     
 -0.14638748540872054     
 -0.14621304626654230     
 -0.14601868577292587     
 -0.14577573528040461     
 -0.14546378317241379     
 -0.14504855595907717     
 -0.14450407191774742     
 -0.14376516799177946     
 -0.14273308657619616     
 -0.14165775767247599     
 -0.13831977493282185     
 -0.13757693794786774     
 -0.14685756252878063     
 -0.14652578247497544     
 -0.14536957932413641     
 -0.14550992166877214     
 -0.14539667712766038     
 -0.14529854565795586     
 -0.14518700456868572     
 -0.14506627618402804     
 -0.14492526922211718     
 -0.14475916909882258     
 -0.14455576519681404     
 -0.14430397653872765     
 -0.14397440024685704     
 -0.14355444863583114     
 -0.14300426012703643     
 -0.14227793637205235     
 -0.14131500755960283     
 -0.14001597896920762     
 -0.13847325101460062     
 -0.13498996750557540     
 -0.13496655736650570     
 -0.14598576201638130     
 -0.14523390141158660     
 -0.14371847103881233     
 -0.14377759101409771     
 -0.14342994470034187     
 -0.14313794357036358     
 -0.14282446837430071     
 -0.14249220020764516     
 -0.14212747544194385     
 -0.14171475852039367     
 -0.14124170740215078     
 -0.14068147275546053     
 -0.14000717494899492     
 -0.13918312061380475     
 -0.13816156128932577     
 -0.13688115541526627     
 -0.13526651404449949     
 -0.13322894795595333     
 -0.13082133421897393     
 -0.12658310793316394     
 -0.12602709611436261     
 -0.14518188373906393     
 -0.14482798503693414     
 -0.14309498368385712     
 -0.14294995776996050     
 -0.14241848340664198     
 -0.14189225276356249     
 -0.14133754323717018     
 -0.14073954436298478     
 -0.14009058610681771     
 -0.13935413589456416     
 -0.13852152505718709     
 -0.13755986651153593     
 -0.13642665210051719     
 -0.13508007637396344     
 -0.13345702000600876     
 -0.13149751337698495     
 -0.12914144884026771     
 -0.12634940519783608     
 -0.12315516122818967     
 -0.11831720127427341     
 -0.11797799010094262     
 -0.14414488952920623     
 -0.14395538397098739     
 -0.14187247721223145     
 -0.14144241348051884     
 -0.14063362759360787     
 -0.13982280964198815     
 -0.13895448397605398     
 -0.13802111808283585     
 -0.13700258009060037     
 -0.13587604124424191     
 -0.13460895286181321     
 -0.13316547894142711     
 -0.13149880641809525     
 -0.12956405142947938     
 -0.12732518431531420     
 -0.12474066761232598     
 -0.12175112275355841     
 -0.11829337743047472     
 -0.11435189665805920     
 -0.10888521944071498     
 -0.10853320043901200     
 -0.14281800576666315     
 -0.14272358974070548     
 -0.14028437724744752     
 -0.13947925057786315     
 -0.13832107709756847     
 -0.13713153675320486     
 -0.13587079692628248     
 -0.13451649229636028     
 -0.13304950115344696     
 -0.13143807482828926     
 -0.12965477825763097     
 -0.12766969451793503     
 -0.12546021544991282     
 -0.12297768224780277     
 -0.12016702829925126     
 -0.11696951975020770     
 -0.11332168485767774     
 -0.10914348856196500     
 -0.10432786946766405     
  -9.7874874003727519E-002
  -9.7452690238754650E-002
 -0.14103777475074752     
 -0.14097881191259704     
 -0.13814178276403744     
 -0.13687550847165669     
 -0.13528756090190736     
 -0.13364104874770261     
 -0.13189694461304480     
 -0.13004224563640493     
 -0.12805799352074601     
 -0.12593810413000681     
 -0.12365554172740882     
 -0.12116476248907596     
 -0.11842156048416824     
 -0.11537165529065142     
 -0.11195365061106426     
 -0.10809123685105503     
 -0.10364335462830845     
  -9.8430339079015230E-002
  -9.2598111547573081E-002
  -8.5591417329469621E-002
  -8.5120965888975150E-002
 -0.13863378476384675     
 -0.13858477990186810     
 -0.13529610342157233     
 -0.13346991873419495     
 -0.13135459622845430     
 -0.12916501829656193     
 -0.12689128971480482     
 -0.12453249621961862     
 -0.12206000965570528     
 -0.11944163089038311     
 -0.11663933853877811     
 -0.11360679130469804     
 -0.11028848868682264     
 -0.10660575430017140     
 -0.10240742459101836     
  -9.7608193321632661E-002
  -9.2312173819399199E-002
  -8.6491373797764268E-002
  -8.0032841675196378E-002
  -7.2030991636948483E-002
  -7.1473694984269504E-002
 -0.13538049085464698     
 -0.13535790312045279     
 -0.13152403354886738     
 -0.12904705817652870     
 -0.12636634477352501     
 -0.12364813783355230     
 -0.12086185691124043     
 -0.11798280544224660     
 -0.11498228951670038     
 -0.11182140328332105     
 -0.10844977989749395     
 -0.10477752563554188     
 -0.10066167654970919     
  -9.6149306960253589E-002
  -9.1266856475257521E-002
  -8.5987412626676585E-002
  -8.0186538777472838E-002
  -7.3428958304384062E-002
  -6.6063808844205693E-002
  -5.7879765536369421E-002
  -5.7375989567312102E-002
 -0.13101409474159717     
 -0.13103564546850169     
 -0.12664117262151672     
 -0.12353409186386603     
 -0.12029018150319007     
 -0.11700607552525556     
 -0.11365456840401629     
 -0.11020374364766215     
 -0.10660238138377601     
 -0.10273953810945688     
  -9.8560215730579367E-002
  -9.4167183828107542E-002
  -8.9530745037513570E-002
  -8.4639345978414729E-002
  -7.9279458011219675E-002
  -7.3210366964704496E-002
  -6.6687864407462036E-002
  -5.9676810828442554E-002
  -5.2334113941840968E-002
  -4.3706468642589043E-002
  -4.3158829776566224E-002
 -0.12546332282770709     
 -0.12548158429804498     
 -0.12057174294881434     
 -0.11678563201693094     
 -0.11291125249719842     
 -0.10899482533162135     
 -0.10496687679111033     
 -0.10070829881257358     
  -9.6316305443041331E-002
  -9.1836917853735864E-002
  -8.7258204267552819E-002
  -8.2547150748371032E-002
  -7.7354552729794759E-002
  -7.1792021553778965E-002
  -6.5929546033042505E-002
  -5.9736456361865913E-002
  -5.3368260882936183E-002
  -4.6030802183410394E-002
  -3.8108417481488667E-002
  -2.9765492124968963E-002
  -2.9364030514093791E-002
 -0.11860730361394710     
 -0.11851871550805432     
 -0.11305444204259651     
 -0.10851039195099323     
 -0.10384179688091191     
  -9.9007538308510418E-002
  -9.4191635032474089E-002
  -8.9408712990759240E-002
  -8.4672339632464927E-002
  -7.9812468213281598E-002
  -7.4609892575975376E-002
  -6.9320507927032801E-002
  -6.3879699959709019E-002
  -5.8321375813661598E-002
  -5.2665431282336986E-002
  -4.6285099222009032E-002
  -3.9493254956429420E-002
  -3.2322990512749450E-002
  -2.4586600128673537E-002
  -1.6179034135065405E-002
  -1.5836297337231291E-002
 -0.11007283581570633     
 -0.10985164135925016     
 -0.10364008370865804     
  -9.8021515771798809E-002
  -9.2520977371871871E-002
  -8.7195533251559112E-002
  -8.2026196882444835E-002
  -7.6651943169065470E-002
  -7.1303208894368947E-002
  -6.6013256843012444E-002
  -6.0763910038781323E-002
  -5.5637097585364795E-002
  -5.0324485818395069E-002
  -4.4658923157543925E-002
  -3.8735634935805702E-002
  -3.2616098189210560E-002
  -2.6155383448069291E-002
  -1.9055943948479939E-002
  -1.1208429388162838E-002
  -3.8101355665321481E-003
  -3.8112863867476167E-003
  -9.9073990868766698E-002
  -9.8734912040320935E-002
  -9.1770193050908264E-002
  -8.5596996048708421E-002
  -7.9597955353364752E-002
  -7.3550518985225563E-002
  -6.7759830275466768E-002
  -6.2201784903281439E-002
  -5.6947067899265985E-002
  -5.1881920814051428E-002
  -4.6599928862749933E-002
  -4.1337911035634251E-002
  -3.6073286062430050E-002
  -3.0813847010459812E-002
  -2.5199448450324711E-002
  -1.9347185379364432E-002
  -1.2980921589754163E-002
  -6.0271800388454365E-003
   6.2288320520944825E-003
   6.9769875780604064E-003
   6.6275499957453663E-003
  -8.5902809847088382E-002
  -8.5507371355412684E-002
  -7.7990029166329883E-002