# vtk DataFile Version 2.0
3D Unstructured Grid of Linear Triangles
ASCII
DATASET UNSTRUCTURED_GRID
FIELD FieldData  1
TIME 1 1 double
        1806.13669
POINTS     7056 float
      0.00000000E+00  1.00000000E+01  1.00000000E+00
      5.00000000E-01  1.00000000E+01  9.93333333E-01
      1.00000000E+00  1.00000000E+01  9.83333333E-01
      1.50000000E+00  1.00000000E+01  9.73333333E-01
      2.00000000E+00  1.00000000E+01  9.63333333E-01
      2.50000000E+00  1.00000000E+01  9.53333333E-01
      3.00000000E+00  1.00000000E+01  9.43333333E-01
      3.50000000E+00  1.00000000E+01  9.33333333E-01
      4.00000000E+00  1.00000000E+01  9.23333333E-01
      4.50000000E+00  1.00000000E+01  9.13333333E-01
      5.00000000E+00  1.00000000E+01  9.03333333E-01
      5.50000000E+00  1.00000000E+01  8.93333333E-01
      6.00000000E+00  1.00000000E+01  8.83333333E-01
      6.50000000E+00  1.00000000E+01  8.73333333E-01
      7.00000000E+00  1.00000000E+01  8.63333333E-01
      7.50000000E+00  1.00000000E+01  8.53333333E-01
      8.00000000E+00  1.00000000E+01  8.43333333E-01
      8.50000000E+00  1.00000000E+01  8.33333333E-01
      9.00000000E+00  1.00000000E+01  8.23333333E-01
      9.50000000E+00  1.00000000E+01  8.13333333E-01
      1.00000000E+01  1.00000000E+01  8.10000000E-01
      0.00000000E+00  9.50000000E+00  9.83333333E-01
      5.00000000E-01  9.50000000E+00  9.82500000E-01
      1.00000000E+00  9.50000000E+00  9.72500000E-01
      1.50000000E+00  9.50000000E+00  9.62500000E-01
      2.00000000E+00  9.50000000E+00  9.52500000E-01
      2.50000000E+00  9.50000000E+00  9.42500000E-01
      3.00000000E+00  9.50000000E+00  9.32500000E-01
      3.50000000E+00  9.50000000E+00  9.22500000E-01
      4.00000000E+00  9.50000000E+00  9.12500000E-01
      4.50000000E+00  9.50000000E+00  9.02500000E-01
      5.00000000E+00  9.50000000E+00  8.92500000E-01
      5.50000000E+00  9.50000000E+00  8.82500000E-01
      6.00000000E+00  9.50000000E+00  8.72500000E-01
      6.50000000E+00  9.50000000E+00  8.62500000E-01
      7.00000000E+00  9.50000000E+00  8.52500000E-01
      7.50000000E+00  9.50000000E+00  8.42500000E-01
      8.00000000E+00  9.50000000E+00  8.32500000E-01
      8.50000000E+00  9.50000000E+00  8.22500000E-01
      9.00000000E+00  9.50000000E+00  8.12500000E-01
      9.50000000E+00  9.50000000E+00  8.02500000E-01
      1.00000000E+01  9.50000000E+00  8.01666667E-01
      0.00000000E+00  9.00000000E+00  9.58333333E-01
      5.00000000E-01  9.00000000E+00  9.57500000E-01
      1.00000000E+00  9.00000000E+00  9.47500000E-01
      1.50000000E+00  9.00000000E+00  9.37500000E-01
      2.00000000E+00  9.00000000E+00  9.27500000E-01
      2.50000000E+00  9.00000000E+00  9.17500000E-01
      3.00000000E+00  9.00000000E+00  9.07500000E-01
      3.50000000E+00  9.00000000E+00  8.97500000E-01
      4.00000000E+00  9.00000000E+00  8.87500000E-01
      4.50000000E+00  9.00000000E+00  8.77500000E-01
      5.00000000E+00  9.00000000E+00  8.67500000E-01
      5.50000000E+00  9.00000000E+00  8.57500000E-01
      6.00000000E+00  9.00000000E+00  8.47500000E-01
      6.50000000E+00  9.00000000E+00  8.37500000E-01
      7.00000000E+00  9.00000000E+00  8.27500000E-01
      7.50000000E+00  9.00000000E+00  8.17500000E-01
      8.00000000E+00  9.00000000E+00  8.07500000E-01
      8.50000000E+00  9.00000000E+00  7.97500000E-01
      9.00000000E+00  9.00000000E+00  7.87500000E-01
      9.50000000E+00  9.00000000E+00  7.77500000E-01
      1.00000000E+01  9.00000000E+00  7.76666667E-01
      0.00000000E+00  8.50000000E+00  9.33333333E-01
      5.00000000E-01  8.50000000E+00  9.32500000E-01
      1.00000000E+00  8.50000000E+00  9.22500000E-01
      1.50000000E+00  8.50000000E+00  9.12500000E-01
      2.00000000E+00  8.50000000E+00  9.02500000E-01
      2.50000000E+00  8.50000000E+00  8.92500000E-01
      3.00000000E+00  8.50000000E+00  8.82500000E-01
      3.50000000E+00  8.50000000E+00  8.72500000E-01
      4.00000000E+00  8.50000000E+00  8.62500000E-01
      4.50000000E+00  8.50000000E+00  8.52500000E-01
      5.00000000E+00  8.50000000E+00  8.42500000E-01
      5.50000000E+00  8.50000000E+00  8.32500000E-01
      6.00000000E+00  8.50000000E+00  8.22500000E-01
      6.50000000E+00  8.50000000E+00  8.12500000E-01
      7.00000000E+00  8.50000000E+00  8.02500000E-01
      7.50000000E+00  8.50000000E+00  7.92500000E-01
      8.00000000E+00  8.50000000E+00  7.82500000E-01
      8.50000000E+00  8.50000000E+00  7.72500000E-01
      9.00000000E+00  8.50000000E+00  7.62500000E-01
      9.50000000E+00  8.50000000E+00  7.52500000E-01
      1.00000000E+01  8.50000000E+00  7.51666667E-01
      0.00000000E+00  8.00000000E+00  9.08333333E-01
      5.00000000E-01  8.00000000E+00  9.07500000E-01
      1.00000000E+00  8.00000000E+00  8.97500000E-01
      1.50000000E+00  8.00000000E+00  8.87500000E-01
      2.00000000E+00  8.00000000E+00  8.77500000E-01
      2.50000000E+00  8.00000000E+00  8.67500000E-01
      3.00000000E+00  8.00000000E+00  8.57500000E-01
      3.50000000E+00  8.00000000E+00  8.47500000E-01
      4.00000000E+00  8.00000000E+00  8.37500000E-01
      4.50000000E+00  8.00000000E+00  8.27500000E-01
      5.00000000E+00  8.00000000E+00  8.17500000E-01
      5.50000000E+00  8.00000000E+00  8.07500000E-01
      6.00000000E+00  8.00000000E+00  7.97500000E-01
      6.50000000E+00  8.00000000E+00  7.87500000E-01
      7.00000000E+00  8.00000000E+00  7.77500000E-01
      7.50000000E+00  8.00000000E+00  7.67500000E-01
      8.00000000E+00  8.00000000E+00  7.57500000E-01
      8.50000000E+00  8.00000000E+00  7.47500000E-01
      9.00000000E+00  8.00000000E+00  7.37500000E-01
      9.50000000E+00  8.00000000E+00  7.27500000E-01
      1.00000000E+01  8.00000000E+00  7.26666667E-01
      0.00000000E+00  7.50000000E+00  8.83333333E-01
      5.00000000E-01  7.50000000E+00  8.82500000E-01
      1.00000000E+00  7.50000000E+00  8.72500000E-01
      1.50000000E+00  7.50000000E+00  8.62500000E-01
      2.00000000E+00  7.50000000E+00  8.52500000E-01
      2.50000000E+00  7.50000000E+00  8.42500000E-01
      3.00000000E+00  7.50000000E+00  8.32500000E-01
      3.50000000E+00  7.50000000E+00  8.22500000E-01
      4.00000000E+00  7.50000000E+00  8.12500000E-01
      4.50000000E+00  7.50000000E+00  8.02500000E-01
      5.00000000E+00  7.50000000E+00  7.92500000E-01
      5.50000000E+00  7.50000000E+00  7.82500000E-01
      6.00000000E+00  7.50000000E+00  7.72500000E-01
      6.50000000E+00  7.50000000E+00  7.62500000E-01
      7.00000000E+00  7.50000000E+00  7.52500000E-01
      7.50000000E+00  7.50000000E+00  7.42500000E-01
      8.00000000E+00  7.50000000E+00  7.32500000E-01
      8.50000000E+00  7.50000000E+00  7.22500000E-01
      9.00000000E+00  7.50000000E+00  7.12500000E-01
      9.50000000E+00  7.50000000E+00  7.02500000E-01
      1.00000000E+01  7.50000000E+00  7.01666667E-01
      0.00000000E+00  7.00000000E+00  8.58333333E-01
      5.00000000E-01  7.00000000E+00  8.57500000E-01
      1.00000000E+00  7.00000000E+00  8.47500000E-01
      1.50000000E+00  7.00000000E+00  8.37500000E-01
      2.00000000E+00  7.00000000E+00  8.27500000E-01
      2.50000000E+00  7.00000000E+00  8.17500000E-01
      3.00000000E+00  7.00000000E+00  8.07500000E-01
      3.50000000E+00  7.00000000E+00  7.97500000E-01
      4.00000000E+00  7.00000000E+00  7.87500000E-01
      4.50000000E+00  7.00000000E+00  7.77500000E-01
      5.00000000E+00  7.00000000E+00  7.67500000E-01
      5.50000000E+00  7.00000000E+00  7.57500000E-01
      6.00000000E+00  7.00000000E+00  7.47500000E-01
      6.50000000E+00  7.00000000E+00  7.37500000E-01
      7.00000000E+00  7.00000000E+00  7.27500000E-01
      7.50000000E+00  7.00000000E+00  7.17500000E-01
      8.00000000E+00  7.00000000E+00  7.07500000E-01
      8.50000000E+00  7.00000000E+00  6.97500000E-01
      9.00000000E+00  7.00000000E+00  6.87500000E-01
      9.50000000E+00  7.00000000E+00  6.77500000E-01
      1.00000000E+01  7.00000000E+00  6.76666667E-01
      0.00000000E+00  6.50000000E+00  8.33333333E-01
      5.00000000E-01  6.50000000E+00  8.32500000E-01
      1.00000000E+00  6.50000000E+00  8.22500000E-01
      1.50000000E+00  6.50000000E+00  8.12500000E-01
      2.00000000E+00  6.50000000E+00  8.02500000E-01
      2.50000000E+00  6.50000000E+00  7.92500000E-01
      3.00000000E+00  6.50000000E+00  7.82500000E-01
      3.50000000E+00  6.50000000E+00  7.72500000E-01
      4.00000000E+00  6.50000000E+00  7.62500000E-01
      4.50000000E+00  6.50000000E+00  7.52500000E-01
      5.00000000E+00  6.50000000E+00  7.42500000E-01
      5.50000000E+00  6.50000000E+00  7.32500000E-01
      6.00000000E+00  6.50000000E+00  7.22500000E-01
      6.50000000E+00  6.50000000E+00  7.12500000E-01
      7.00000000E+00  6.50000000E+00  7.02500000E-01
      7.50000000E+00  6.50000000E+00  6.92500000E-01
      8.00000000E+00  6.50000000E+00  6.82500000E-01
      8.50000000E+00  6.50000000E+00  6.72500000E-01
      9.00000000E+00  6.50000000E+00  6.62500000E-01
      9.50000000E+00  6.50000000E+00  6.52500000E-01
      1.00000000E+01  6.50000000E+00  6.51666667E-01
      0.00000000E+00  6.00000000E+00  8.08333333E-01
      5.00000000E-01  6.00000000E+00  8.07500000E-01
      1.00000000E+00  6.00000000E+00  7.97500000E-01
      1.50000000E+00  6.00000000E+00  7.87500000E-01
      2.00000000E+00  6.00000000E+00  7.77500000E-01
      2.50000000E+00  6.00000000E+00  7.67500000E-01
      3.00000000E+00  6.00000000E+00  7.57500000E-01
      3.50000000E+00  6.00000000E+00  7.47500000E-01
      4.00000000E+00  6.00000000E+00  7.37500000E-01
      4.50000000E+00  6.00000000E+00  7.27500000E-01
      5.00000000E+00  6.00000000E+00  7.17500000E-01
      5.50000000E+00  6.00000000E+00  7.07500000E-01
      6.00000000E+00  6.00000000E+00  6.97500000E-01
      6.50000000E+00  6.00000000E+00  6.87500000E-01
      7.00000000E+00  6.00000000E+00  6.77500000E-01
      7.50000000E+00  6.00000000E+00  6.67500000E-01
      8.00000000E+00  6.00000000E+00  6.57500000E-01
[...]
POINT_DATA     7056
SCALARS pressure float
LOOKUP_TABLE default
 -0.10726595068329389     
 -0.10618357655938038     
 -0.10573844973366675     
 -0.10542264924594312     
 -0.10511886130616710     
 -0.10485371223793571     
 -0.10460115457333516     
 -0.10435800016797459     
 -0.10414496151675756     
 -0.10391193062646152     
 -0.10367478540673293     
 -0.10342526846207938     
 -0.10313790870282573     
 -0.10280058894858929     
 -0.10238365843042495     
 -0.10183912593154909     
 -0.10111001035675042     
 -0.10007383537337355     
  -9.8712696177668147E-002
  -9.5319322897118364E-002
  -9.4424812035669256E-002
 -0.10531263672977177     
 -0.10493484961303361     
 -0.10376721038021462     
 -0.10360841891564600     
 -0.10332607764783552     
 -0.10306866084469742     
 -0.10282119529267493     
 -0.10258579291746638     
 -0.10233281080212586     
 -0.10208281778246378     
 -0.10180198312533797     
 -0.10149565005459540     
 -0.10113225118770930     
 -0.10069472638556201     
 -0.10013744192748678     
  -9.9407819748228793E-002
  -9.8412262972232017E-002
  -9.7015353280364855E-002
  -9.5106786612148803E-002
  -9.1277808139682712E-002
  -9.1261642807454954E-002
 -0.10355802903903030     
 -0.10300952904523460     
 -0.10130559579695704     
 -0.10090119479564438     
 -0.10033759192062555     
  -9.9825024140505370E-002
  -9.9333044460485076E-002
  -9.8851489944201287E-002
  -9.8364972136973428E-002
  -9.7864477847979026E-002
  -9.7326066474797343E-002
  -9.6726431013991213E-002
  -9.6026642089334549E-002
  -9.5186243314075686E-002
  -9.4136044921283413E-002
  -9.2803051628312802E-002
  -9.1095105254346193E-002
  -8.8880389088595288E-002
  -8.6001927960197455E-002
  -8.1167934237445907E-002
  -8.0655394271914024E-002
 -0.10193044119445871     
 -0.10181215289372310     
  -9.9724791385153347E-002
  -9.9018019283788949E-002
  -9.8153717081230649E-002
  -9.7341039508023613E-002
  -9.6541807101321681E-002
  -9.5746368160371381E-002
  -9.4937698863700973E-002
  -9.4085928582694836E-002
  -9.3168816969388044E-002
  -9.2149474283791263E-002
  -9.0993643163202145E-002
  -8.9653669253785151E-002
  -8.8051882731518774E-002
  -8.6083750247702318E-002
  -8.3596211970769871E-002
  -8.0338161173178643E-002
  -7.6040812648245026E-002
  -7.0105653964279216E-002
  -6.9735173885991875E-002
 -0.10013923175560242     
 -0.10021710562481406     
  -9.7696529550530722E-002
  -9.6590482220676913E-002
  -9.5350837567096725E-002
  -9.4155650111009986E-002
  -9.2970540281761466E-002
  -9.1783695384251698E-002
  -9.0580459807262176E-002
  -8.9342690333198735E-002
  -8.8034901185639572E-002
  -8.6609247884153542E-002
  -8.4996346032589362E-002
  -8.3110788219217122E-002
  -8.0815929888143886E-002
  -7.7929550909974291E-002
  -7.4422741482375362E-002
  -7.0278871114875671E-002
  -6.5382425621713355E-002
  -5.9219905480827055E-002
  -5.8905004566744232E-002
  -9.8117785657489714E-002
  -9.8296325307992177E-002
  -9.5318013811242108E-002
  -9.3726035402842800E-002
  -9.2032001539798458E-002
  -9.0386917272503406E-002
  -8.8788542463568113E-002
  -8.7209527299503556E-002
  -8.5613868655994546E-002
  -8.3953260277387587E-002
  -8.2166229560506995E-002
  -8.0166095455762351E-002
  -7.7853329866901397E-002
  -7.5213536687677440E-002
  -7.2244437803449787E-002
  -6.8848469705499266E-002
  -6.4937697279464704E-002
  -6.0438185973363055E-002
  -5.4618752272169231E-002
  -4.7181313833454863E-002
  -4.6792387121167331E-002
  -9.5761741611878476E-002
  -9.5978555638169136E-002
  -9.2491277846668968E-002
  -9.0348787317778345E-002
  -8.8193315640648376E-002
  -8.6115642862494901E-002
  -8.4068212048294427E-002
  -8.1997722491690059E-002
  -7.9840863622388417E-002
  -7.7536967625640787E-002
  -7.5109641990809786E-002
  -7.2577996446120202E-002
  -6.9877303115471315E-002
  -6.6930649491682606E-002
  -6.3667118877014442E-002
  -5.9992977785337978E-002
  -5.5340949086346070E-002
  -4.9713505828719480E-002
  -4.3305652550543965E-002
  -3.6163355093423062E-002
  -3.5922918951275029E-002
  -9.2949622452608710E-002
  -9.3159125976208054E-002
  -8.9182190236545777E-002
  -8.6514420687811289E-002
  -8.3842232787930709E-002
  -8.1187208456366289E-002
  -7.8475608293600341E-002
  -7.5718735866040568E-002
  -7.3023168303572597E-002
  -7.0362578989582494E-002
  -6.7679535199142313E-002
  -6.4906468698832598E-002
  -6.1982343269895317E-002
  -5.8769873083353484E-002
  -5.4757300042096432E-002
  -5.0193483289433821E-002
  -4.5098475171148462E-002
  -3.9427053542026046E-002
  -3.2988532972373967E-002
  -2.5047729616548799E-002
  -2.4707382399632001E-002
  -8.9665906707540335E-002
  -8.9826313537242561E-002
  -8.5385737919381033E-002
  -8.2052129151099787E-002
  -7.8625110127529360E-002
  -7.5209277938076483E-002
  -7.1986217093087612E-002
  -6.8939313753083334E-002
  -6.6010468182783763E-002
  -6.3135802306674788E-002
  -6.0247622431814911E-002
  -5.7070749731716636E-002
  -5.3382801616495119E-002
  -4.9483537010092539E-002
  -4.5284393424165986E-002
  -4.0720843307079369E-002
  -3.5867836135096004E-002
  -2.9717379540089489E-002
  -2.2723373642171158E-002
  -1.5055774149362100E-002
  -1.4841692548413237E-002
  -8.5847509777213463E-002
  -8.5907172055244480E-002
  -8.0813255402129733E-002
  -7.6537273623605170E-002
  -7.2470916846512468E-002
  -6.8731500534841117E-002
  -6.5264161026006906E-002
  -6.2001643046525633E-002
  -5.8827752784755875E-002
  -5.5322833135150136E-002
  -5.1717728558065029E-002
  -4.8110276321788450E-002
  -4.4416210479610516E-002
  -4.0577967327870820E-002
  -3.6615690221733166E-002
  -3.1884062657222420E-002
  -2.6436499240246929E-002
  -2.0243870575219015E-002
  -1.3066492446497343E-002
  -5.4785701701717008E-003
  -5.4683502321705487E-003
  -8.1090531904977128E-002
  -8.1045190983536575E-002
  -7.5090501466273732E-002
  -7.0288976613979745E-002
  -6.5926571326459418E-002
  -6.1946291645060304E-002
  -5.8180215647251052E-002
  -5.4146810806242875E-002
  -5.0280083594587313E-002
  -4.6599262309311405E-002
  -4.3032032987605440E-002
  -3.9534902913039079E-002
  -3.6106951658585032E-002
  -3.2097025410403601E-002
  -2.7752179542124587E-002
  -2.3001366994630457E-002
  -1.7782679578565191E-002
  -1.1134415955199423E-002
   1.0351829822382996E-004
   5.5550692999878511E-004
   4.6480432087586866E-004
  -7.5001071991009194E-002
  -7.4906640698964480E-002
  -6.8656213965988727E-002
  -6.3536708508929923E-002
  -5.8901193572623037E-002
  -5.4090742754762673E-002
  -4.9587044725307977E-002
  -4.5460628811393643E-002
  -4.1652751467634676E-002
  -3.8146950464253190E-002
  -3.4753553665486166E-002
  -3.1050249939103120E-002
  -2.7294675901869909E-002
  -2.3385748508962523E-002
  -1.9310967673384940E-002
  -1.4856689733820868E-002
  -9.3820980268017867E-003
  -3.7034234720833901E-003
   6.9881055199815423E-004
   1.4961418714318467E-003
   1.6743476035351748E-003
  -6.8215279946363172E-002
  -6.8013717775852064E-002
  -6.1569809390331437E-002
  -5.5803512855294925E-002
  -5.0223595191029147E-002
  -4.5223741726653721E-002
  -4.0781813758532799E-002
  -3.6911382214558745E-002
  -3.3096335606247473E-002
  -2.9372601769089825E-002
  -2.5792856110676440E-002
  -2.2270823398882488E-002
  -1.8827012178974901E-002
  -1.5221642093956428E-002
  -1.1144937138305784E-002
  -7.0293136694508963E-003
   8.1114578604657889E-005
   5.1743683573821553E-004
   1.4421374830138635E-003
   2.4315020319946100E-003
   2.5194290585798663E-003
  -6.0574531229252312E-002
  -6.0325380147605676E-002
  -5.2977409445309986E-002
  -4.6561486868268893E-002
  -4.0964675014237457E-002
  -3.6276245044814755E-002
  -3.1757172536856663E-002
  -2.7614306565486031E-002
  -2.3771588414062482E-002
  -2.0314639326595361E-002
  -1.7211916527415522E-002
  -1.3927191235833232E-002
  -1.0362087860022724E-002
  -7.1184847996656588E-003
  -1.5362147206214702E-003
   2.5897843699119658E-004
   6.7601892617153965E-004
   1.2862495703455943E-003
   2.3294666712291015E-003
   3.0678136736088197E-003
   3.1217868460194586E-003
  -5.0847038305607196E-002
  -5.0589219479366974E-002
  -4.3036323195608121E-002
  -3.6857114781320637E-002
  -3.1234258126578381E-002
  -2.6174912841647559E-002
  -2.1851219445207987E-002
  -1.8208302403898740E-002
  -1.4619980122652919E-002
  -1.1223414753857327E-002
  -8.5089727971499208E-003
  -5.7042674446562665E-003
   6.7394421625536051E-005
   3.2821625801950517E-004
   6.0674181926815348E-004
   9.8702761722361371E-004
   1.5595191201317061E-003
   2.1599653574313452E-003
   3.1122760926681585E-003
   3.6152278320829693E-003
   3.4581491065413701E-003
  -4.0007458748671586E-002
  -3.9781728174907334E-002
  -3.2377635202358424E-002
  -2.5926677009793796E-002
  -2.0464844968561897E-002
  -1.5602279458798865E-002
  -1.1763251141324371E-002
  -8.6057021362771022E-003
  -5.1559159170646773E-003
   1.0744445470785548E-004
   3.5778951141041240E-004
   5.8284180532031018E-004
   8.3834630579134918E-004
   1.2072357581771689E-003
   1.6230618055867309E-003
   2.0294553868872036E-003
   2.4762875115596594E-003
   3.0109298315632825E-003
   3.9494454502899427E-003
   4.1804561914544442E-003
   3.7662675503057287E-003
  -2.8073937979599530E-002
  -2.7903917547577251E-002
  -2.0267935874693031E-002
  -1.4238990588702566E-002
  -9.3396472545618833E-003
  -2.2570114337701177E-003
   2.4905374371927199E-004
   5.5467244536595796E-004
   7.9968888406739113E-004
   1.0704438354372605E-003
   1.4400870498109473E-003
   1.7919887852639489E-003
   2.1147503779549120E-003
   2.4178768519620719E-003
   2.7279181878398962E-003
   3.0748146040950010E-003
   3.4938492272473380E-003
   4.0030610769291770E-003
   4.9383071648931125E-003
   4.8319316184617664E-003
   4.0863798336352088E-003
  -1.4837690100858393E-002
  -1.4719879193855161E-002
  -6.0990156167558228E-003
   3.1346746879040228E-004
   7.7713679769976583E-004
   1.1398195911356695E-003
   1.5246912283734427E-003
   1.9982600956835583E-003
   2.3810034347232500E-003
   2.7001074224876904E-003
   2.9698279575209219E-003
   3.2192695213737236E-003
   3.4678164713441094E-003
   3.7281216447613082E-003
   4.0134747443102458E-003
   4.3407642179796747E-003
   4.7435407373456534E-003
   5.2293323961093135E-003
   6.1822861035465415E-003
   5.6601022833025448E-003
   4.4883764358386573E-003
   6.7398423890205957E-004
   7.7109220947085030E-004
   1.4736239534376763E-003
   2.1871290364681561E-003
   2.9604192664743601E-003
   3.5484504531934180E-003
   3.9813287944114066E-003
   4.3136245014148466E-003
   4.5962149653452399E-003
   4.8496826053221241E-003
   5.0868000186171910E-003
   5.3173204193781480E-003
   5.5502886210072903E-003
   5.7974630037707529E-003
   6.0731515052628903E-003
   6.3948340304756249E-003
   6.7938258345194560E-003
   7.2824377357266420E-003
   8.2346421866161621E-003
   6.9598917536312097E-003
   5.1045600755292349E-003
   4.9977282700408437E-003
   4.6382978359231939E-003
   6.0536815186932698E-003
   6.8571980029141916E-003
   6.9421867122120076E-003
   6.9018698449992682E-003
   6.8514336437264208E-003
   6.8223160278715767E-003
   6.8195839539844840E-003
   6.8423894788184831E-003
   6.8909151427983409E-003
   6.9661048205567934E-003
   7.0690909063344997E-003
   7.2027775453490954E-003
   7.3730123773159701E-003
   7.5889812370599748E-003
   7.8673025497659234E-003
   8.2273562083583704E-003
   8.8289560788715714E-003
   8.7536024241223372E-003
   6.7419054731841701E-003
   6.9407398949884744E-003
   7.4189708472942560E-003
   9.0038641616914435E-003
   1.0116510374489502E-002
   9.6830311429867179E-003
   9.0828700876147885E-003
   8.5426282341379035E-003
   8.1147288345941801E-003
   7.7912757054246573E-003
   7.5570957904635963E-003
   7.3970451285655303E-003
   7.3001943050548220E-003
   7.2588427444684909E-003
   7.2673442349672109E-003
   7.3225704275789137E-003
   7.4245543674450899E-003
   7.5773886853936108E-003
   7.7920643526953933E-003
   8.1160712328183140E-003
   8.5623867656879852E-003
   8.8671412342741177E-003
 -0.10151274003933441     
 -0.10050461782017359     
 -0.10005853071953529     
  -9.9741803793042108E-002
  -9.9436639877327551E-002
  -9.9169756006502172E-002
  -9.8915289118295585E-002
  -9.8670083142636297E-002
  -9.8454750710913821E-002
  -9.8219467734240729E-002
  -9.7979987217327993E-002
  -9.7727997940485270E-002
  -9.7438008787916766E-002
  -9.7097705787951682E-002
  -9.6677352607228345E-002
  -9.6128838467670633E-002
  -9.5394976788651123E-002
  -9.4353433208589063E-002
  -9.2984363370642392E-002
  -8.9583811990370715E-002
  -8.8813748882418400E-002
  -9.9640808737543343E-002
  -9.9398518725507409E-002
  -9.8226853280096491E-002
  -9.8065980584385218E-002
  -9.7781361733472266E-002
  -9.7521545979690136E-002
  -9.7271690603021974E-002
  -9.7033893316036027E-002
  -9.6778667005656197E-002
  -9.6526267573117316E-002
  -9.6242863673140180E-002
  -9.5933526556514173E-002
  -9.5566687568820571E-002
  -9.5125082580172896E-002
  -9.4563043436247149E-002
  -9.3827771336457380E-002
  -9.2825466533898005E-002
  -9.1420011312232874E-002
  -8.9496407349702156E-002
  -8.5648236031966418E-002
  -8.5750640058768077E-002
  -9.7883669697401685E-002
  -9.7470148550696356E-002
  -9.5761446516256024E-002
  -9.5353826146809775E-002
  -9.4787546397410730E-002
  -9.4272324061261903E-002
  -9.3777746697532624E-002
  -9.3293495559743908E-002
  -9.2804132902339700E-002
  -9.2300555614379873E-002
  -9.1758781722512173E-002
  -9.1155375736573035E-002
  -9.0451244343409870E-002
  -8.9605435557036942E-002
  -8.8547787195101507E-002
  -8.7203063501866906E-002
  -8.5477345470323707E-002
  -8.3242741000117054E-002
  -8.0343208496304802E-002
  -7.5505940357408138E-002
  -7.5105734337205757E-002
  -9.6248035013700689E-002
  -9.6265503402832034E-002
  -9.4173316613787361E-002
  -9.3463885869615460E-002
  -9.2597294909169722E-002
  -9.1781852473430112E-002
  -9.0979670782024583E-002
  -9.0180941833812894E-002
  -8.9368411062910408E-002
  -8.8511928059256381E-002
  -8.7588607154998180E-002
  -8.6560523288050084E-002
  -8.5392493313556805E-002
  -8.4038030379157053E-002
  -8.2420813282699595E-002
  -8.0436609976148057E-002
  -7.7934469552760746E-002
  -7.4667341638063531E-002
  -7.0342332087789616E-002
  -6.4375412884134259E-002
  -6.4089665821580266E-002
  -9.4449638550382797E-002
  -9.4663931805309298E-002
  -9.2138954239492893E-002
  -9.1030200859519877E-002
  -8.9787862601564003E-002
  -8.8588904253906808E-002
  -8.7398628637010006E-002
  -8.6204334929694926E-002
  -8.4990634618827179E-002
  -8.3740339368169117E-002
  -8.2419810175802480E-002
  -8.0981251815902655E-002
  -7.9355628176924278E-002
  -7.7458650268455581E-002
  -7.5155085531495358E-002
  -7.2255683767012149E-002
  -6.8715278116071227E-002
  -6.4534380681799397E-002
  -5.9596144674554534E-002
  -5.3411481949299920E-002
  -5.3162150732986947E-002
  -9.2421968289061490E-002
  -9.2735347643601487E-002
  -8.9753284002468028E-002
  -8.8157111230819873E-002
  -8.6456604858406158E-002
  -8.4800696960780825E-002
  -8.3188857703370256E-002
  -8.1596979431960079E-002
  -7.9989286769783965E-002
  -7.8317774482547287E-002
  -7.6521630025544254E-002
  -7.4514210819671411E-002
  -7.2189963773439642E-002
  -6.9522392696841531E-002
  -6.6522876932102043E-002
  -6.3095111542688875E-002
  -5.9149043509913055E-002
  -5.4616172211177066E-002
  -4.8785895297199386E-002
  -4.1322335501780119E-002
  -4.0976571596919260E-002
  -9.0059346720031144E-002
  -9.0407609696259536E-002
  -8.6914253573781075E-002
  -8.4758913952970250E-002
  -8.2588132674773357E-002
  -8.0496877223327240E-002
  -7.8438068461447130E-002
  -7.6358780397100243E-002
  -7.4195373580554169E-002
  -7.1880555724507841E-002
  -6.9427339597358653E-002
  -6.6867820707771961E-002
  -6.4139427051708123E-002
  -6.1163870050783255E-002
  -5.7870247051781697E-002
  -5.4170656396786629E-002
  -4.9511720040985946E-002
  -4.3850505870936717E-002
  -3.7408403034790712E-002
  -3.0241958092642268E-002
  -3.0026483428587200E-002
  -8.7235814159290187E-002
  -8.7570749150799293E-002
  -8.3576823171694986E-002
  -8.0892299112305457E-002
  -7.8207954782751332E-002
  -7.5544958836007189E-002
  -7.2826811918937681E-002
  -7.0047741634725658E-002
  -6.7323336270112263E-002
  -6.4634689575431767E-002
  -6.1924587352598676E-002
  -5.9125052369716019E-002
  -5.6175209429499474E-002
  -5.2948346645662642E-002
  -4.8925991164547919E-002
  -4.4333895822356702E-002
  -3.9209846053743946E-002
  -3.3507340819055431E-002
  -2.7052095964660666E-002
  -1.9097859809345731E-002
  -1.8770561095910628E-002
  -8.3929277679131664E-002
  -8.4204501707213553E-002
  -7.9748709956568006E-002
  -7.6404235574018542E-002
  -7.2971404530747214E-002
  -6.9529557916706133E-002
  -6.6274748984133977E-002
  -6.3197798916870593E-002
  -6.0241437360333119E-002
  -5.7340718191649098E-002
  -5.4431952246226940E-002
  -5.1256669084638523E-002
  -4.7545215795271899E-002
  -4.3620198070385294E-002
  -3.9396312537893906E-002
  -3.4807981761257330E-002
  -2.9934047042652259E-002
  -2.3768169507957952E-002
  -1.6758320885435191E-002
  -9.0854909910646851E-003
  -8.8787278987127460E-003
  -8.0088247519487357E-002
  -8.0251535952702513E-002
  -7.5152304997503167E-002
  -7.0858178137092276E-002
  -6.6756568626299681E-002
  -6.2983353299239569E-002
  -5.9485995304005779E-002
  -5.6196650879055454E-002
  -5.3009047155826002E-002
  -4.9499170172814161E-002
  -4.5869868618386440E-002
  -4.2239707694079656E-002
  -3.8523768097102840E-002
  -3.4664267912454381E-002
  -3.0681226613538205E-002
  -2.5941109194110207E-002
  -2.0478108548567218E-002
  -1.4265092985673650E-002
  -7.0839807603516360E-003
   4.7477116787557236E-004
   4.8674448930505839E-004
  -7.5315388987159448E-002
  -7.5364228387684556E-002
  -6.9383627384515950E-002
  -6.4543428624470628E-002
  -6.0145999591210295E-002
  -5.6135624421208986E-002
  -5.2359511033516291E-002
  -4.8312958516683831E-002
  -4.4421950688400172E-002
  -4.0719269701644592E-002
  -3.7132016718750861E-002
  -3.3615887673077632E-002
  -3.0172223386582524E-002
  -2.6154670923349745E-002
  -2.1797136802753036E-002
  -1.7034726459398509E-002
  -1.1808498741264739E-002
  -5.1567218019991671E-003
   5.9136641126722065E-003
   6.5596427991083282E-003
   6.4485645044132173E-003
  -6.9187091242579435E-002
  -6.9168405846339320E-002
  -6.2882562810346529E-002
  -5.7726757784509211E-002
  -5.3070274076159128E-002
  -4.8249091178084597E-002
  -4.3720775121275812E-002
  -3.9571771568821121E-002
  -3.5743813171890203E-002
  -3.2219899589969757E-002
  -2.8820862941054157E-002
  -2.5105143065174536E-002
  -2.1338768241356915E-002
  -1.7420317119483605E-002
  -1.3336824048949106E-002
  -8.8752073776425921E-003
  -3.4024399098925664E-003
   2.2363072889355013E-003
   6.6670117070517258E-003
   7.5730883036374489E-003
   7.7211992742070440E-003
  -6.2353958997933667E-002
  -6.2208221859203203E-002
  -5.5732633111998456E-002
  -4.9958898063522023E-002
  -4.4352570541184050E-002
  -3.9328661936067093E-002
  -3.4865415637060956E-002
  -3.0976479415130563E-002
  -2.7156463025694140E-002
  -2.3422154903839029E-002
  -1.9833656428514503E-002
  -1.6303117960817355E-002
  -1.2851611508144361E-002
  -9.2413484235989839E-003
  -5.1605655225972014E-003
  -1.0434183638308651E-003
   5.9634352742105635E-003
   6.4948514164408109E-003
   7.4747864070468621E-003
   8.5494677346615016E-003
   8.6082776376717081E-003
  -5.4671862833157191E-002
  -5.4459693175822478E-002
  -4.7103398569529178E-002
  -4.0662310858350391E-002
  -3.5043120813139622E-002
  -3.0335753118851245E-002
  -2.5810291280409122E-002
  -2.1657860662316022E-002
  -1.7807204072191510E-002
  -1.4342492674373240E-002
  -1.1235705009242451E-002
  -7.9443848117892960E-003
  -4.3760925490599093E-003
  -1.1323198481657585E-003
   4.3600767726544830E-003
   6.2011150892560480E-003
   6.6791627290300132E-003
   7.3226001679732216E-003
   8.3989351669971658E-003
   9.2245925232086537E-003
   9.2474957427551834E-003
  -4.4917971999522528E-002
  -4.4686920335088851E-002
  -3.7113595989559850E-002