# vtk DataFile Version 2.0
3D Unstructured Grid of Linear Triangles
ASCII
DATASET UNSTRUCTURED_GRID
FIELD FieldData  1
TIME 1 1 double
        1809.90671
POINTS     7056 float
      0.00000000E+00  1.00000000E+01  1.00000000E+00
      5.00000000E-01  1.00000000E+01  9.93333333E-01
      1.00000000E+00  1.00000000E+01  9.83333333E-01
      1.50000000E+00  1.00000000E+01  9.73333333E-01
      2.00000000E+00  1.00000000E+01  9.63333333E-01
      2.50000000E+00  1.00000000E+01  9.53333333E-01
      3.00000000E+00  1.00000000E+01  9.43333333E-01
      3.50000000E+00  1.00000000E+01  9.33333333E-01
      4.00000000E+00  1.00000000E+01  9.23333333E-01
      4.50000000E+00  1.00000000E+01  9.13333333E-01
      5.00000000E+00  1.00000000E+01  9.03333333E-01
      5.50000000E+00  1.00000000E+01  8.93333333E-01
      6.00000000E+00  1.00000000E+01  8.83333333E-01
      6.50000000E+00  1.00000000E+01  8.73333333E-01
      7.00000000E+00  1.00000000E+01  8.63333333E-01
      7.50000000E+00  1.00000000E+01  8.53333333E-01
      8.00000000E+00  1.00000000E+01  8.43333333E-01
      8.50000000E+00  1.00000000E+01  8.33333333E-01
      9.00000000E+00  1.00000000E+01  8.23333333E-01
      9.50000000E+00  1.00000000E+01  8.13333333E-01
      1.00000000E+01  1.00000000E+01  8.10000000E-01
      0.00000000E+00  9.50000000E+00  9.83333333E-01
      5.00000000E-01  9.50000000E+00  9.82500000E-01
      1.00000000E+00  9.50000000E+00  9.72500000E-01
      1.50000000E+00  9.50000000E+00  9.62500000E-01
      2.00000000E+00  9.50000000E+00  9.52500000E-01
      2.50000000E+00  9.50000000E+00  9.42500000E-01
      3.00000000E+00  9.50000000E+00  9.32500000E-01
      3.50000000E+00  9.50000000E+00  9.22500000E-01
      4.00000000E+00  9.50000000E+00  9.12500000E-01
      4.50000000E+00  9.50000000E+00  9.02500000E-01
      5.00000000E+00  9.50000000E+00  8.92500000E-01
      5.50000000E+00  9.50000000E+00  8.82500000E-01
      6.00000000E+00  9.50000000E+00  8.72500000E-01
      6.50000000E+00  9.50000000E+00  8.62500000E-01
      7.00000000E+00  9.50000000E+00  8.52500000E-01
      7.50000000E+00  9.50000000E+00  8.42500000E-01
      8.00000000E+00  9.50000000E+00  8.32500000E-01
      8.50000000E+00  9.50000000E+00  8.22500000E-01
      9.00000000E+00  9.50000000E+00  8.12500000E-01
      9.50000000E+00  9.50000000E+00  8.02500000E-01
      1.00000000E+01  9.50000000E+00  8.01666667E-01
      0.00000000E+00  9.00000000E+00  9.58333333E-01
      5.00000000E-01  9.00000000E+00  9.57500000E-01
      1.00000000E+00  9.00000000E+00  9.47500000E-01
      1.50000000E+00  9.00000000E+00  9.37500000E-01
      2.00000000E+00  9.00000000E+00  9.27500000E-01
      2.50000000E+00  9.00000000E+00  9.17500000E-01
      3.00000000E+00  9.00000000E+00  9.07500000E-01
      3.50000000E+00  9.00000000E+00  8.97500000E-01
      4.00000000E+00  9.00000000E+00  8.87500000E-01
      4.50000000E+00  9.00000000E+00  8.77500000E-01
      5.00000000E+00  9.00000000E+00  8.67500000E-01
      5.50000000E+00  9.00000000E+00  8.57500000E-01
      6.00000000E+00  9.00000000E+00  8.47500000E-01
      6.50000000E+00  9.00000000E+00  8.37500000E-01
      7.00000000E+00  9.00000000E+00  8.27500000E-01
      7.50000000E+00  9.00000000E+00  8.17500000E-01
      8.00000000E+00  9.00000000E+00  8.07500000E-01
      8.50000000E+00  9.00000000E+00  7.97500000E-01
      9.00000000E+00  9.00000000E+00  7.87500000E-01
      9.50000000E+00  9.00000000E+00  7.77500000E-01
      1.00000000E+01  9.00000000E+00  7.76666667E-01
      0.00000000E+00  8.50000000E+00  9.33333333E-01
      5.00000000E-01  8.50000000E+00  9.32500000E-01
      1.00000000E+00  8.50000000E+00  9.22500000E-01
      1.50000000E+00  8.50000000E+00  9.12500000E-01
      2.00000000E+00  8.50000000E+00  9.02500000E-01
      2.50000000E+00  8.50000000E+00  8.92500000E-01
      3.00000000E+00  8.50000000E+00  8.82500000E-01
      3.50000000E+00  8.50000000E+00  8.72500000E-01
      4.00000000E+00  8.50000000E+00  8.62500000E-01
      4.50000000E+00  8.50000000E+00  8.52500000E-01
      5.00000000E+00  8.50000000E+00  8.42500000E-01
      5.50000000E+00  8.50000000E+00  8.32500000E-01
      6.00000000E+00  8.50000000E+00  8.22500000E-01
      6.50000000E+00  8.50000000E+00  8.12500000E-01
      7.00000000E+00  8.50000000E+00  8.02500000E-01
      7.50000000E+00  8.50000000E+00  7.92500000E-01
      8.00000000E+00  8.50000000E+00  7.82500000E-01
      8.50000000E+00  8.50000000E+00  7.72500000E-01
      9.00000000E+00  8.50000000E+00  7.62500000E-01
      9.50000000E+00  8.50000000E+00  7.52500000E-01
      1.00000000E+01  8.50000000E+00  7.51666667E-01
      0.00000000E+00  8.00000000E+00  9.08333333E-01
      5.00000000E-01  8.00000000E+00  9.07500000E-01
      1.00000000E+00  8.00000000E+00  8.97500000E-01
      1.50000000E+00  8.00000000E+00  8.87500000E-01
      2.00000000E+00  8.00000000E+00  8.77500000E-01
      2.50000000E+00  8.00000000E+00  8.67500000E-01
      3.00000000E+00  8.00000000E+00  8.57500000E-01
      3.50000000E+00  8.00000000E+00  8.47500000E-01
      4.00000000E+00  8.00000000E+00  8.37500000E-01
      4.50000000E+00  8.00000000E+00  8.27500000E-01
      5.00000000E+00  8.00000000E+00  8.17500000E-01
      5.50000000E+00  8.00000000E+00  8.07500000E-01
      6.00000000E+00  8.00000000E+00  7.97500000E-01
      6.50000000E+00  8.00000000E+00  7.87500000E-01
      7.00000000E+00  8.00000000E+00  7.77500000E-01
      7.50000000E+00  8.00000000E+00  7.67500000E-01
      8.00000000E+00  8.00000000E+00  7.57500000E-01
      8.50000000E+00  8.00000000E+00  7.47500000E-01
      9.00000000E+00  8.00000000E+00  7.37500000E-01
      9.50000000E+00  8.00000000E+00  7.27500000E-01
      1.00000000E+01  8.00000000E+00  7.26666667E-01
      0.00000000E+00  7.50000000E+00  8.83333333E-01
      5.00000000E-01  7.50000000E+00  8.82500000E-01
      1.00000000E+00  7.50000000E+00  8.72500000E-01
      1.50000000E+00  7.50000000E+00  8.62500000E-01
      2.00000000E+00  7.50000000E+00  8.52500000E-01
      2.50000000E+00  7.50000000E+00  8.42500000E-01
      3.00000000E+00  7.50000000E+00  8.32500000E-01
      3.50000000E+00  7.50000000E+00  8.22500000E-01
      4.00000000E+00  7.50000000E+00  8.12500000E-01
      4.50000000E+00  7.50000000E+00  8.02500000E-01
      5.00000000E+00  7.50000000E+00  7.92500000E-01
      5.50000000E+00  7.50000000E+00  7.82500000E-01
      6.00000000E+00  7.50000000E+00  7.72500000E-01
      6.50000000E+00  7.50000000E+00  7.62500000E-01
      7.00000000E+00  7.50000000E+00  7.52500000E-01
      7.50000000E+00  7.50000000E+00  7.42500000E-01
      8.00000000E+00  7.50000000E+00  7.32500000E-01
      8.50000000E+00  7.50000000E+00  7.22500000E-01
      9.00000000E+00  7.50000000E+00  7.12500000E-01
      9.50000000E+00  7.50000000E+00  7.02500000E-01
      1.00000000E+01  7.50000000E+00  7.01666667E-01
      0.00000000E+00  7.00000000E+00  8.58333333E-01
      5.00000000E-01  7.00000000E+00  8.57500000E-01
      1.00000000E+00  7.00000000E+00  8.47500000E-01
      1.50000000E+00  7.00000000E+00  8.37500000E-01
      2.00000000E+00  7.00000000E+00  8.27500000E-01
      2.50000000E+00  7.00000000E+00  8.17500000E-01
      3.00000000E+00  7.00000000E+00  8.07500000E-01
      3.50000000E+00  7.00000000E+00  7.97500000E-01
      4.00000000E+00  7.00000000E+00  7.87500000E-01
      4.50000000E+00  7.00000000E+00  7.77500000E-01
      5.00000000E+00  7.00000000E+00  7.67500000E-01
      5.50000000E+00  7.00000000E+00  7.57500000E-01
      6.00000000E+00  7.00000000E+00  7.47500000E-01
      6.50000000E+00  7.00000000E+00  7.37500000E-01
      7.00000000E+00  7.00000000E+00  7.27500000E-01
      7.50000000E+00  7.00000000E+00  7.17500000E-01
      8.00000000E+00  7.00000000E+00  7.07500000E-01
      8.50000000E+00  7.00000000E+00  6.97500000E-01
      9.00000000E+00  7.00000000E+00  6.87500000E-01
      9.50000000E+00  7.00000000E+00  6.77500000E-01
      1.00000000E+01  7.00000000E+00  6.76666667E-01
      0.00000000E+00  6.50000000E+00  8.33333333E-01
      5.00000000E-01  6.50000000E+00  8.32500000E-01
      1.00000000E+00  6.50000000E+00  8.22500000E-01
      1.50000000E+00  6.50000000E+00  8.12500000E-01
      2.00000000E+00  6.50000000E+00  8.02500000E-01
      2.50000000E+00  6.50000000E+00  7.92500000E-01
      3.00000000E+00  6.50000000E+00  7.82500000E-01
      3.50000000E+00  6.50000000E+00  7.72500000E-01
      4.00000000E+00  6.50000000E+00  7.62500000E-01
      4.50000000E+00  6.50000000E+00  7.52500000E-01
      5.00000000E+00  6.50000000E+00  7.42500000E-01
      5.50000000E+00  6.50000000E+00  7.32500000E-01
      6.00000000E+00  6.50000000E+00  7.22500000E-01
      6.50000000E+00  6.50000000E+00  7.12500000E-01
      7.00000000E+00  6.50000000E+00  7.02500000E-01
      7.50000000E+00  6.50000000E+00  6.92500000E-01
      8.00000000E+00  6.50000000E+00  6.82500000E-01
      8.50000000E+00  6.50000000E+00  6.72500000E-01
      9.00000000E+00  6.50000000E+00  6.62500000E-01
      9.50000000E+00  6.50000000E+00  6.52500000E-01
      1.00000000E+01  6.50000000E+00  6.51666667E-01
      0.00000000E+00  6.00000000E+00  8.08333333E-01
      5.00000000E-01  6.00000000E+00  8.07500000E-01
      1.00000000E+00  6.00000000E+00  7.97500000E-01
      1.50000000E+00  6.00000000E+00  7.87500000E-01
      2.00000000E+00  6.00000000E+00  7.77500000E-01
      2.50000000E+00  6.00000000E+00  7.67500000E-01
      3.00000000E+00  6.00000000E+00  7.57500000E-01
      3.50000000E+00  6.00000000E+00  7.47500000E-01
      4.00000000E+00  6.00000000E+00  7.37500000E-01
      4.50000000E+00  6.00000000E+00  7.27500000E-01
      5.00000000E+00  6.00000000E+00  7.17500000E-01
      5.50000000E+00  6.00000000E+00  7.07500000E-01
      6.00000000E+00  6.00000000E+00  6.97500000E-01
      6.50000000E+00  6.00000000E+00  6.87500000E-01
      7.00000000E+00  6.00000000E+00  6.77500000E-01
      7.50000000E+00  6.00000000E+00  6.67500000E-01
      8.00000000E+00  6.00000000E+00  6.57500000E-01
[...]
POINT_DATA     7056
SCALARS pressure float
LOOKUP_TABLE default
 -0.14419578642507572     
 -0.14336153513249267     
 -0.14313193127665563     
 -0.14298641528789011     
 -0.14284162715542220     
 -0.14271308333626581     
 -0.14255796244682772     
 -0.14241983048618939     
 -0.14226472312157562     
 -0.14209545322919770     
 -0.14191526767917464     
 -0.14167668290341937     
 -0.14139809415196100     
 -0.14104265902979871     
 -0.14058344212765544     
 -0.13997816810598609     
 -0.13917430036930253     
 -0.13805224660855275     
 -0.13681788436182049     
 -0.13334280531256662     
 -0.13262394379032405     
 -0.14271668637911819     
 -0.14224573850845521     
 -0.14113522147579347     
 -0.14121663120505906     
 -0.14107621621738681     
 -0.14094758705090754     
 -0.14081169005518446     
 -0.14065025921417837     
 -0.14047232178286206     
 -0.14026937744960696     
 -0.14002311647528659     
 -0.13972608714611909     
 -0.13936393704646854     
 -0.13890277383182892     
 -0.13830563488218200     
 -0.13752750770333116     
 -0.13649681856721338     
 -0.13511590373712712     
 -0.13342859071088642     
 -0.12983993504849395     
 -0.12990969078455608     
 -0.14174780488801458     
 -0.14089666413055199     
 -0.13935913459852725     
 -0.13932578202826221     
 -0.13893771523347109     
 -0.13857864810702891     
 -0.13820980719814913     
 -0.13781555275422433     
 -0.13739515265371105     
 -0.13692858499734747     
 -0.13639935659591734     
 -0.13578746086291016     
 -0.13505764300422565     
 -0.13417897307880164     
 -0.13309782320129665     
 -0.13174927069146641     
 -0.13007141463264901     
 -0.12798449448555005     
 -0.12552095676926414     
 -0.12129001986067152     
 -0.12077742182038016     
 -0.14081585309635289     
 -0.14033036105795338     
 -0.13853650795769828     
 -0.13827307101770497     
 -0.13764308460202446     
 -0.13703822201933216     
 -0.13639596931469997     
 -0.13572289264652157     
 -0.13499258870582292     
 -0.13419149566114952     
 -0.13329710927912436     
 -0.13227543068255307     
 -0.13109069927693942     
 -0.12970066601977356     
 -0.12806007610357908     
 -0.12611522814577886     
 -0.12379247287419806     
 -0.12100991504366605     
 -0.11775208777768031     
 -0.11284509014793666     
 -0.11242980977858184     
 -0.13961665176560595     
 -0.13927320434427537     
 -0.13710871233149596     
 -0.13651332169511363     
 -0.13558738897820879     
 -0.13466362912999805     
 -0.13369702394864669     
 -0.13267470617466792     
 -0.13157985377790060     
 -0.13038653827430308     
 -0.12907297041320481     
 -0.12760899889240543     
 -0.12596021578628014     
 -0.12407695348269356     
 -0.12189813794480397     
 -0.11935416689310588     
 -0.11636928955972270     
 -0.11284857801849876     
 -0.10869930474753925     
 -0.10283006676566875     
 -0.10237373937412003     
 -0.13804665382087267     
 -0.13781990544080427     
 -0.13526704649535731     
 -0.13427866105248273     
 -0.13298858678760539     
 -0.13167975971037604     
 -0.13031755294887176     
 -0.12888709059559611     
 -0.12737500454540152     
 -0.12576609177893255     
 -0.12402298035071253     
 -0.12210318266833313     
 -0.11995864312899164     
 -0.11753144923278014     
 -0.11475067009051448     
 -0.11152753261640838     
 -0.10772958522977817     
 -0.10319644234761413     
  -9.8026067888677612E-002
  -9.1530464676382164E-002
  -9.1037165058514419E-002
 -0.13600421721531492     
 -0.13587162953757120     
 -0.13289580211119142     
 -0.13143193367759357     
 -0.12971032294918050     
 -0.12796283737158926     
 -0.12617324773393301     
 -0.12432497580232529     
 -0.12238733721693996     
 -0.12032691738476743     
 -0.11810463160649522     
 -0.11566883348984293     
 -0.11295799008290042     
 -0.10988658299005799     
 -0.10632423606669621     
 -0.10218729130926489     
  -9.7544098676610250E-002
  -9.2345075079736300E-002
  -8.6490463391097089E-002
  -7.8930463033802106E-002
  -7.8361981953446166E-002
 -0.13333720177141406     
 -0.13330717944927784     
 -0.12985110682445292     
 -0.12785991066686209     
 -0.12568311068762411     
 -0.12348975790781085     
 -0.12124737902817886     
 -0.11892928350566372     
 -0.11650168868169844     
 -0.11392275725025532     
 -0.11113536400859529     
 -0.10805212024531763     
 -0.10456503929692171     
 -0.10069183185222375     
  -9.6444132671739097E-002
  -9.1768220252938210E-002
  -8.6555374733855966E-002
  -8.0352330310216838E-002
  -7.3450579408758779E-002
  -6.5567231186507077E-002
  -6.5046375211595037E-002
 -0.12990460898772233     
 -0.12997517913265333     
 -0.12604476087539326     
 -0.12351560995913893     
 -0.12083915679010306     
 -0.11813331794281373     
 -0.11536452963048593     
 -0.11249407221453518     
 -0.10946636324223676     
 -0.10619134999819982     
 -0.10263421607193289     
  -9.8860626939196394E-002
  -9.4832646608483867E-002
  -9.0510389896049523E-002
  -8.5741352229690454E-002
  -8.0177800069063443E-002
  -7.4100782500324536E-002
  -6.7492816217034721E-002
  -6.0515998543860770E-002
  -5.2175976693517735E-002
  -5.1653260167021223E-002
 -0.12567558476147703     
 -0.12576782490192218     
 -0.12136915180579518     
 -0.11822294594101507     
 -0.11495846795525598     
 -0.11163826322634410     
 -0.10819443994775041     
 -0.10454928513792497     
 -0.10077155172068940     
  -9.6897917905189562E-002
  -9.2893796206425377E-002
  -8.8716787758098159E-002
  -8.4114883455070732E-002
  -7.8998737199584973E-002
  -7.3559345967111556E-002
  -6.7733475482158523E-002
  -6.1615297022073204E-002
  -5.4730234976953548E-002
  -4.7019345066439511E-002
  -3.8610257248369119E-002
  -3.8172467382795179E-002
 -0.12048680612381715     
 -0.12049041987278457     
 -0.11556834858043867     
 -0.11168348886038630     
 -0.10764348938572940     
 -0.10345386860442383     
  -9.9255340991960581E-002
  -9.5063599127241785E-002
  -9.0868050056050087E-002
  -8.6571832953387814E-002
  -8.1873279975639979E-002
  -7.7000139428945721E-002
  -7.1960481954425282E-002
  -6.6708975358565376E-002
  -6.1330110814634860E-002
  -5.5364422892799837E-002
  -4.8728890068482411E-002
  -4.1541799716762737E-002
  -3.3984395056812243E-002
  -2.5530145621336681E-002
  -2.5152513923800541E-002
 -0.11397348441055842     
 -0.11383977480134490     
 -0.10820322540051541     
 -0.10329081367968401     
  -9.8428431454988183E-002
  -9.3681819632494681E-002
  -8.9045682659821726E-002
  -8.4287552651268388E-002
  -7.9347106980396043E-002
  -7.4449236494877752E-002
  -6.9532576232333304E-002
  -6.4633400387699325E-002
  -5.9773329772291890E-002
  -5.4342829702764467E-002
  -4.8589450280245951E-002
  -4.2460923905009634E-002
  -3.6106321239781594E-002
  -2.8863792481776833E-002
  -2.0894579443214170E-002
  -1.2937648870531069E-002
  -1.2760403247111666E-002
 -0.10542788947076155     
 -0.10516324551736710     
  -9.8734163968665328E-002
  -9.3155563103784103E-002
  -8.7789514705047131E-002
  -8.2287074844002911E-002
  -7.6885824935895367E-002
  -7.1668326334631868E-002
  -6.6623469793961193E-002
  -6.1824962109693793E-002
  -5.6978677565334014E-002
  -5.1882199750852016E-002
  -4.6699589007606651E-002
  -4.1376718671707870E-002
  -3.6064465124086488E-002
  -3.0116765236799344E-002
  -2.3604255751261249E-002
  -1.6350981492104431E-002
  -5.9663520451266371E-003
   4.5351697819303861E-004
   4.0192154884469557E-004
  -9.4823540625574479E-002
  -9.4461739482812931E-002
  -8.7615167279358350E-002
  -8.1119745002168606E-002
  -7.4913433614371167E-002
  -6.9053094684994376E-002
  -6.3629236537081746E-002
  -5.8598715434501396E-002
  -5.3386368051156458E-002
  -4.8331920175896069E-002
  -4.3406966320484637E-002
  -3.8628367762633474E-002
  -3.3883587249195546E-002
  -2.8768201265807387E-002
  -2.3571942304709985E-002
  -1.8111618895258065E-002
  -1.1976469443183807E-002
  -5.8777178425224825E-003
   1.2672659156842147E-003
   2.0343469769357500E-003
   2.0250545579621015E-003
  -8.2099002922706096E-002
  -8.1696730145727828E-002
  -7.4008265526982031E-002
  -6.7132660894111948E-002
  -6.0979638190589304E-002
  -5.5048531217145417E-002
  -4.9410530502308002E-002
  -4.4136289977606033E-002
  -3.9200916407416367E-002
  -3.4569159806796347E-002
  -2.9959537120461486E-002
  -2.5497488127932694E-002
  -2.0972101991409822E-002
  -1.6013835691992825E-002
  -1.1624475957540915E-002
  -6.1098930173645524E-003
   5.2582947566662654E-004
   1.4644124282775562E-003
   3.2994261490801569E-003
   4.1920700184289580E-003
   3.5027711096988598E-003
  -6.7109097693961575E-002
  -6.6739742225488202E-002
  -5.9213014435779719E-002
  -5.2054527334766169E-002
  -4.5513822280399012E-002
  -3.9626821242671327E-002
  -3.4472374156458471E-002
  -2.9580041596832456E-002
  -2.4933880657289818E-002
  -2.0243212369280335E-002
  -1.6141459309363448E-002
  -1.2519545405525946E-002
  -8.5159597772779833E-003
   9.9221040291039254E-005
   7.5292106146007144E-004
   1.4418055856506217E-003
   2.3889220351772014E-003
   3.7589767138785334E-003
   5.7233769550273572E-003
   5.8078656555690007E-003
   4.5529770581305209E-003
  -5.0799959657840454E-002
  -5.0431965943639329E-002
  -4.2384880413718219E-002
  -3.5659454672403328E-002
  -2.9403480091343394E-002
  -2.3491142632475336E-002
  -1.8663820956911218E-002
  -1.4702375730373782E-002
  -1.0762556483255472E-002
  -4.2062037012600851E-003
   3.8686889830116063E-004
   9.9330917410154129E-004
   1.5464780171068973E-003
   2.1694293324102817E-003
   3.0589216503186258E-003
   4.1270303160684347E-003
   5.2016980048364379E-003
   6.2196112201749598E-003
   8.0310606521684560E-003
   7.3591570832432750E-003
   5.4278591975739591E-003
  -3.2978131579867932E-002
  -3.2616436850737250E-002
  -2.4110952029190599E-002
  -1.8122040944341559E-002
  -1.2720577938320040E-002
  -4.9621694220303419E-003
   4.4429737650550068E-004
   1.1113303359370631E-003
   1.6853183155468468E-003
   2.2174863934377076E-003
   2.8749314047074024E-003
   3.7571332802395830E-003
   4.5892585986193543E-003
   5.3859371385235064E-003
   6.1433319425557402E-003
   6.9132966372947120E-003
   7.8066182933964950E-003
   8.6936224045396984E-003
   1.0551488806281364E-002
   9.0360089364326015E-003
   6.2132914178304067E-003
  -1.3765047510507129E-002
  -1.3283329938815622E-002
   5.4326731824342570E-004
   1.7375005792197357E-003
   2.7073955711552607E-003
   3.4902078465094103E-003
   4.3302408403137673E-003
   5.3663647674202083E-003
   6.2667435755000590E-003
   7.0722199747935074E-003
   7.7669335254556297E-003
   8.3838895176301092E-003
   8.9866056998435476E-003
   9.6074757931402556E-003
   1.0269787882010465E-002
   1.0993962744619520E-002
   1.1840060915777223E-002
   1.2696619429518035E-002
   1.4314988804075184E-002
   1.1320683227390840E-002
   7.2121916344282640E-003
   5.1343876748991893E-003
   4.7908769311260334E-003
   6.4438856687653971E-003
   7.7482829813234535E-003
   8.4765598642819878E-003
   8.9503304269583066E-003
   9.2457304917254873E-003
   9.4487819061803233E-003
   9.6431235610375064E-003
   9.8559065996282995E-003
   1.0092917309492053E-002
   1.0357740827063837E-002
   1.0653905203359335E-002
   1.0987485931360412E-002
   1.1370126497293352E-002
   1.1817405785530800E-002
   1.2358275946727258E-002
   1.2982403244034206E-002
   1.3906232293938555E-002
   1.3296989875991667E-002
   9.3832524973580661E-003
   7.7822333505117537E-003
   8.7481976614707160E-003
   1.1386915640446246E-002
   1.2602595725172066E-002
   1.2101861833404701E-002
   1.1534669723393707E-002
   1.0988499154425631E-002
   1.0536291900981355E-002
   1.0182060772188008E-002
   9.9199375602556875E-003
   9.7414106663222446E-003
   9.6400798307094346E-003
   9.6111498482483858E-003
   9.6496304952271520E-003
   9.7521423423075210E-003
   9.9198948292792116E-003
   1.0160083622618374E-002
   1.0487906326910214E-002
   1.0971938509904432E-002
   1.1592336829448558E-002
   1.1961863989815164E-002
 -0.13838192279428604     
 -0.13760582988695194     
 -0.13737626636362121     
 -0.13723117749464925     
 -0.13708659444314791     
 -0.13695822133723604     
 -0.13680331338877563     
 -0.13666531656193484     
 -0.13651035239395312     
 -0.13634120305162192     
 -0.13616105638459619     
 -0.13592250289739821     
 -0.13564379182021372     
 -0.13528804283330839     
 -0.13482821504105766     
 -0.13422188119403169     
 -0.13341636731242776     
 -0.13229218229497564     
 -0.13105409474741514     
 -0.12757390514082198     
 -0.12695590888635677     
 -0.13696831427207290     
 -0.13660838689639507     
 -0.13549593944929922     
 -0.13557813945194427     
 -0.13543821975727199     
 -0.13531008844404452     
 -0.13517461421420479     
 -0.13501361319219934     
 -0.13483596562224617     
 -0.13463314645544222     
 -0.13438680682969825     
 -0.13408936814793437     
 -0.13372637474744403     
 -0.13326382412424304     
 -0.13266463551734334     
 -0.13188369212548146     
 -0.13084930859221813     
 -0.12946364580352862     
 -0.12776927580132316     
 -0.12417093362512586     
 -0.12433474703307056     
 -0.13600273417063474     
 -0.13526409792641661     
 -0.13372547178098701     
 -0.13369319399555474     
 -0.13330587398702134     
 -0.13294729026439181     
 -0.13257877555110101     
 -0.13218462144873552     
 -0.13176400566319221     
 -0.13129682916279789     
 -0.13076651428607350     
 -0.13015294674291719     
 -0.12942082779170122     
 -0.12853900528372514     
 -0.12745362484601733     
 -0.12609928433379453     
 -0.12441316167921432     
 -0.12231541035594308     
 -0.11983949199261766     
 -0.11559797339347515     
 -0.11517973697407564     
 -0.13507169120663887     
 -0.13469998926050189     
 -0.13290526950393874     
 -0.13264293041468925     
 -0.13201356515546758     
 -0.13140879197389896     
 -0.13076620243532197     
 -0.13009220713977290     
 -0.12936038920204104     
 -0.12855711518818794     
 -0.12765979058033036     
 -0.12663419998526951     
 -0.12544422333950084     
 -0.12404694693715593     
 -0.12239675088470012     
 -0.12044106519374449     
 -0.11810682960701895     
 -0.11531210104191134     
 -0.11204092242587631     
 -0.10712515201786406     
 -0.10679911006014269     
 -0.13387352175318751     
 -0.13364441971618055     
 -0.13147882617538600     
 -0.13088403567277423     
 -0.12995782811486056     
 -0.12903288914269209     
 -0.12806441453615885     
 -0.12703943354469999     
 -0.12594099470529047     
 -0.12474287453037221     
 -0.12342276038209050     
 -0.12195021513245569     
 -0.12029164262983764     
 -0.11839795315598947     
 -0.11620790089022144     
 -0.11365195244165928     
 -0.11065475739857837     
 -0.10712223515301310     
 -0.10296338398412810     
  -9.7089116475300080E-002
  -9.6716634998579423E-002
 -0.13230433555962531     
 -0.13219065151291870     
 -0.12963635481471383     
 -0.12864699387192585     
 -0.12735488188600363     
 -0.12604292319460364     
 -0.12467637672753482     
 -0.12323989726391217     
 -0.12171984265820571     
 -0.12010172241289971     
 -0.11834895473680737     
 -0.11641888453214724     
 -0.11426336514770938     
 -0.11182461175619048     
 -0.10903208612268264     
 -0.10579805734450709     
 -0.10199215711835279     
  -9.7446289393128743E-002
  -9.2253047577490171E-002
  -8.5740368565134631E-002
  -8.5315978886173316E-002
 -0.13026090875262855     
 -0.13023826014970968     
 -0.12726041390147461     
 -0.12579310003306424     
 -0.12406648053927301     
 -0.12231171790957299     
 -0.12051305491648119     
 -0.11865525763792391     
 -0.11670774083259332     
 -0.11463694987635634     
 -0.11240381476051903     
 -0.10995690973840569     
 -0.10723514111964079     
 -0.10415435350986393     
 -0.10058458447681429     
  -9.6431642675848972E-002
  -9.1767573686411488E-002
  -8.6545871929498114E-002
  -8.0674170645842813E-002
  -7.3104985869755224E-002
  -7.2594680321177926E-002
 -0.12758948928389444     
 -0.12766527124349838     
 -0.12420493714705494     
 -0.12220517238203088     
 -0.12001853386510219     
 -0.11781507370220487     
 -0.11556230672701875     
 -0.11323349961660797     
 -0.11079503126455592     
 -0.10820536675657599     
 -0.10540810940635764     
 -0.10231713229533956     
  -9.8820664869571723E-002
  -9.4929024336710729E-002
  -9.0661547138673040E-002
  -8.5964347464022511E-002
  -8.0736628042531469E-002
  -7.4518342831964804E-002
  -6.7590386262250141E-002
  -5.9686847614721206E-002
  -5.9203150572212059E-002
 -0.12414553648383297     
 -0.12431690870310888     
 -0.12037701574605369     
 -0.11783641297169455     
 -0.11514891634691911     
 -0.11243178655526936     
 -0.10965188784787164     
 -0.10677096428736961     
 -0.10373463702012231     
 -0.10045256808622867     
  -9.6880845508368438E-002
  -9.3088889839488986E-002
  -8.9041628358011327E-002
  -8.4699709483393198E-002
  -7.9920351069373952E-002
  -7.4339885080095258E-002
  -6.8239655679061248E-002
  -6.1607540583644232E-002
  -5.4603485843523210E-002
  -4.6256652982769680E-002
  -4.5761118919372422E-002
 -0.11989685208884349     
 -0.12008408351169483     
 -0.11567453113209401     
 -0.11251571767221190     
 -0.10923967729008539     
 -0.10590904265579026     
 -0.10245761718016659     
  -9.8803318425782105E-002
  -9.5007853264076472E-002
  -9.1115872148852584E-002
  -8.7092329578780187E-002
  -8.2898491110323533E-002
  -7.8290950289410785E-002
  -7.3154098934371151E-002
  -6.7693682078730347E-002
  -6.1846150136907772E-002
  -5.5703689581762382E-002
  -4.8807565568823354E-002
  -4.1077947525014237E-002
  -3.2655639418759458E-002
  -3.2229728927154318E-002
 -0.11468566578401748     
 -0.11477659400184864     
 -0.10984341491634625     
 -0.10594718039412331     
 -0.10190007062348780     
  -9.7697872650927081E-002
  -9.3480754083585652E-002
  -8.9269947040603231E-002
  -8.5055423159110952E-002
  -8.0747880485669818E-002
  -7.6038122028901978E-002
  -7.1145715798020662E-002
  -6.6087457829748092E-002
  -6.0815498662443415E-002
  -5.5415739622944285E-002
  -4.9441130151397034E-002
  -4.2789517965851773E-002
  -3.5587060602933887E-002
  -2.8018027022499777E-002
  -1.9555515077565491E-002
  -1.9183518058120089E-002
 -0.10814929851790755     
 -0.10809309288839716     
 -0.10245133878661268     
  -9.7524901252323090E-002
  -9.2643098383654379E-002
  -8.7876182893281682E-002
  -8.3222285782022412E-002
  -7.8458866505458469E-002
  -7.3499162887803823E-002
  -6.8582872255020175E-002
  -6.3648592745941521E-002
  -5.8730316749682078E-002
  -5.3854691261027508E-002
  -4.8415417988696127E-002
  -4.2648680419691581E-002
  -3.6507507649558651E-002
  -3.0141080315966802E-002
  -2.2889586920848227E-002
  -1.4910221053767216E-002
  -6.9482303993132141E-003
  -6.7723718391659140E-003
  -9.9582377921278706E-002
  -9.9386428358524292E-002
  -9.2939103980958351E-002
  -8.7338783380463164E-002
  -8.1956281305633982E-002
  -7.6444183277425554E-002
  -7.1024317348723887E-002
  -6.5789462645550717E-002
  -6.0725548842208030E-002
  -5.5909146304263004E-002
  -5.1056291347326255E-002
  -4.5947413602101521E-002
  -4.0753709379235739E-002
  -3.5420051439680557E-002
  -3.0098226702900906E-002
  -2.4145421523519495E-002
  -1.7628186995154876E-002
  -1.0377652634129878E-002
  -1.3152079632949167E-004
   6.3677072168422597E-003
   6.3095138591253491E-003
  -8.8941438620440127E-002
  -8.8631647369819697E-002
  -8.1771417238471131E-002
  -7.5263746380695287E-002
  -6.9038233776118368E-002
  -6.3159435550690715E-002
  -5.7716963430513378E-002
  -5.2678450074299749E-002
  -4.7453416641762051E-002
  -4.2387789768250174E-002
  -3.7452489653264587E-002
  -3.2664481422373597E-002
  -2.7913852658903858E-002
  -2.2792752539412788E-002
  -1.7592240747309123E-002
  -1.2127967762018774E-002
  -5.9958973865407803E-003
   7.6217677869879253E-005
   7.1892815785780028E-003
   8.0989206353780322E-003
   8.0637028546246027E-003
  -7.6189824090232880E-002
  -7.5827775585519605E-002
  -6.8121986434163950E-002