# vtk DataFile Version 2.0
3D Unstructured Grid of Linear Triangles
ASCII
DATASET UNSTRUCTURED_GRID
FIELD FieldData  1
TIME 1 1 double
        3600.00000
POINTS     7056 float
      0.00000000E+00  1.00000000E+01  1.00000000E+00
      5.00000000E-01  1.00000000E+01  9.93333333E-01
      1.00000000E+00  1.00000000E+01  9.83333333E-01
      1.50000000E+00  1.00000000E+01  9.73333333E-01
      2.00000000E+00  1.00000000E+01  9.63333333E-01
      2.50000000E+00  1.00000000E+01  9.53333333E-01
      3.00000000E+00  1.00000000E+01  9.43333333E-01
      3.50000000E+00  1.00000000E+01  9.33333333E-01
      4.00000000E+00  1.00000000E+01  9.23333333E-01
      4.50000000E+00  1.00000000E+01  9.13333333E-01
      5.00000000E+00  1.00000000E+01  9.03333333E-01
      5.50000000E+00  1.00000000E+01  8.93333333E-01
      6.00000000E+00  1.00000000E+01  8.83333333E-01
      6.50000000E+00  1.00000000E+01  8.73333333E-01
      7.00000000E+00  1.00000000E+01  8.63333333E-01
      7.50000000E+00  1.00000000E+01  8.53333333E-01
      8.00000000E+00  1.00000000E+01  8.43333333E-01
      8.50000000E+00  1.00000000E+01  8.33333333E-01
      9.00000000E+00  1.00000000E+01  8.23333333E-01
      9.50000000E+00  1.00000000E+01  8.13333333E-01
      1.00000000E+01  1.00000000E+01  8.10000000E-01
      0.00000000E+00  9.50000000E+00  9.83333333E-01
      5.00000000E-01  9.50000000E+00  9.82500000E-01
      1.00000000E+00  9.50000000E+00  9.72500000E-01
      1.50000000E+00  9.50000000E+00  9.62500000E-01
      2.00000000E+00  9.50000000E+00  9.52500000E-01
      2.50000000E+00  9.50000000E+00  9.42500000E-01
      3.00000000E+00  9.50000000E+00  9.32500000E-01
      3.50000000E+00  9.50000000E+00  9.22500000E-01
      4.00000000E+00  9.50000000E+00  9.12500000E-01
      4.50000000E+00  9.50000000E+00  9.02500000E-01
      5.00000000E+00  9.50000000E+00  8.92500000E-01
      5.50000000E+00  9.50000000E+00  8.82500000E-01
      6.00000000E+00  9.50000000E+00  8.72500000E-01
      6.50000000E+00  9.50000000E+00  8.62500000E-01
      7.00000000E+00  9.50000000E+00  8.52500000E-01
      7.50000000E+00  9.50000000E+00  8.42500000E-01
      8.00000000E+00  9.50000000E+00  8.32500000E-01
      8.50000000E+00  9.50000000E+00  8.22500000E-01
      9.00000000E+00  9.50000000E+00  8.12500000E-01
      9.50000000E+00  9.50000000E+00  8.02500000E-01
      1.00000000E+01  9.50000000E+00  8.01666667E-01
      0.00000000E+00  9.00000000E+00  9.58333333E-01
      5.00000000E-01  9.00000000E+00  9.57500000E-01
      1.00000000E+00  9.00000000E+00  9.47500000E-01
      1.50000000E+00  9.00000000E+00  9.37500000E-01
      2.00000000E+00  9.00000000E+00  9.27500000E-01
      2.50000000E+00  9.00000000E+00  9.17500000E-01
      3.00000000E+00  9.00000000E+00  9.07500000E-01
      3.50000000E+00  9.00000000E+00  8.97500000E-01
      4.00000000E+00  9.00000000E+00  8.87500000E-01
      4.50000000E+00  9.00000000E+00  8.77500000E-01
      5.00000000E+00  9.00000000E+00  8.67500000E-01
      5.50000000E+00  9.00000000E+00  8.57500000E-01
      6.00000000E+00  9.00000000E+00  8.47500000E-01
      6.50000000E+00  9.00000000E+00  8.37500000E-01
      7.00000000E+00  9.00000000E+00  8.27500000E-01
      7.50000000E+00  9.00000000E+00  8.17500000E-01
      8.00000000E+00  9.00000000E+00  8.07500000E-01
      8.50000000E+00  9.00000000E+00  7.97500000E-01
      9.00000000E+00  9.00000000E+00  7.87500000E-01
      9.50000000E+00  9.00000000E+00  7.77500000E-01
      1.00000000E+01  9.00000000E+00  7.76666667E-01
      0.00000000E+00  8.50000000E+00  9.33333333E-01
      5.00000000E-01  8.50000000E+00  9.32500000E-01
      1.00000000E+00  8.50000000E+00  9.22500000E-01
      1.50000000E+00  8.50000000E+00  9.12500000E-01
      2.00000000E+00  8.50000000E+00  9.02500000E-01
      2.50000000E+00  8.50000000E+00  8.92500000E-01
      3.00000000E+00  8.50000000E+00  8.82500000E-01
      3.50000000E+00  8.50000000E+00  8.72500000E-01
      4.00000000E+00  8.50000000E+00  8.62500000E-01
      4.50000000E+00  8.50000000E+00  8.52500000E-01
      5.00000000E+00  8.50000000E+00  8.42500000E-01
      5.50000000E+00  8.50000000E+00  8.32500000E-01
      6.00000000E+00  8.50000000E+00  8.22500000E-01
      6.50000000E+00  8.50000000E+00  8.12500000E-01
      7.00000000E+00  8.50000000E+00  8.02500000E-01
      7.50000000E+00  8.50000000E+00  7.92500000E-01
      8.00000000E+00  8.50000000E+00  7.82500000E-01
      8.50000000E+00  8.50000000E+00  7.72500000E-01
      9.00000000E+00  8.50000000E+00  7.62500000E-01
      9.50000000E+00  8.50000000E+00  7.52500000E-01
      1.00000000E+01  8.50000000E+00  7.51666667E-01
      0.00000000E+00  8.00000000E+00  9.08333333E-01
      5.00000000E-01  8.00000000E+00  9.07500000E-01
      1.00000000E+00  8.00000000E+00  8.97500000E-01
      1.50000000E+00  8.00000000E+00  8.87500000E-01
      2.00000000E+00  8.00000000E+00  8.77500000E-01
      2.50000000E+00  8.00000000E+00  8.67500000E-01
      3.00000000E+00  8.00000000E+00  8.57500000E-01
      3.50000000E+00  8.00000000E+00  8.47500000E-01
      4.00000000E+00  8.00000000E+00  8.37500000E-01
      4.50000000E+00  8.00000000E+00  8.27500000E-01
      5.00000000E+00  8.00000000E+00  8.17500000E-01
      5.50000000E+00  8.00000000E+00  8.07500000E-01
      6.00000000E+00  8.00000000E+00  7.97500000E-01
      6.50000000E+00  8.00000000E+00  7.87500000E-01
      7.00000000E+00  8.00000000E+00  7.77500000E-01
      7.50000000E+00  8.00000000E+00  7.67500000E-01
      8.00000000E+00  8.00000000E+00  7.57500000E-01
      8.50000000E+00  8.00000000E+00  7.47500000E-01
      9.00000000E+00  8.00000000E+00  7.37500000E-01
      9.50000000E+00  8.00000000E+00  7.27500000E-01
      1.00000000E+01  8.00000000E+00  7.26666667E-01
      0.00000000E+00  7.50000000E+00  8.83333333E-01
      5.00000000E-01  7.50000000E+00  8.82500000E-01
      1.00000000E+00  7.50000000E+00  8.72500000E-01
      1.50000000E+00  7.50000000E+00  8.62500000E-01
      2.00000000E+00  7.50000000E+00  8.52500000E-01
      2.50000000E+00  7.50000000E+00  8.42500000E-01
      3.00000000E+00  7.50000000E+00  8.32500000E-01
      3.50000000E+00  7.50000000E+00  8.22500000E-01
      4.00000000E+00  7.50000000E+00  8.12500000E-01
      4.50000000E+00  7.50000000E+00  8.02500000E-01
      5.00000000E+00  7.50000000E+00  7.92500000E-01
      5.50000000E+00  7.50000000E+00  7.82500000E-01
      6.00000000E+00  7.50000000E+00  7.72500000E-01
      6.50000000E+00  7.50000000E+00  7.62500000E-01
      7.00000000E+00  7.50000000E+00  7.52500000E-01
      7.50000000E+00  7.50000000E+00  7.42500000E-01
      8.00000000E+00  7.50000000E+00  7.32500000E-01
      8.50000000E+00  7.50000000E+00  7.22500000E-01
      9.00000000E+00  7.50000000E+00  7.12500000E-01
      9.50000000E+00  7.50000000E+00  7.02500000E-01
      1.00000000E+01  7.50000000E+00  7.01666667E-01
      0.00000000E+00  7.00000000E+00  8.58333333E-01
      5.00000000E-01  7.00000000E+00  8.57500000E-01
      1.00000000E+00  7.00000000E+00  8.47500000E-01
      1.50000000E+00  7.00000000E+00  8.37500000E-01
      2.00000000E+00  7.00000000E+00  8.27500000E-01
      2.50000000E+00  7.00000000E+00  8.17500000E-01
      3.00000000E+00  7.00000000E+00  8.07500000E-01
      3.50000000E+00  7.00000000E+00  7.97500000E-01
      4.00000000E+00  7.00000000E+00  7.87500000E-01
      4.50000000E+00  7.00000000E+00  7.77500000E-01
      5.00000000E+00  7.00000000E+00  7.67500000E-01
      5.50000000E+00  7.00000000E+00  7.57500000E-01
      6.00000000E+00  7.00000000E+00  7.47500000E-01
      6.50000000E+00  7.00000000E+00  7.37500000E-01
      7.00000000E+00  7.00000000E+00  7.27500000E-01
      7.50000000E+00  7.00000000E+00  7.17500000E-01
      8.00000000E+00  7.00000000E+00  7.07500000E-01
      8.50000000E+00  7.00000000E+00  6.97500000E-01
      9.00000000E+00  7.00000000E+00  6.87500000E-01
      9.50000000E+00  7.00000000E+00  6.77500000E-01
      1.00000000E+01  7.00000000E+00  6.76666667E-01
      0.00000000E+00  6.50000000E+00  8.33333333E-01
      5.00000000E-01  6.50000000E+00  8.32500000E-01
      1.00000000E+00  6.50000000E+00  8.22500000E-01
      1.50000000E+00  6.50000000E+00  8.12500000E-01
      2.00000000E+00  6.50000000E+00  8.02500000E-01
      2.50000000E+00  6.50000000E+00  7.92500000E-01
      3.00000000E+00  6.50000000E+00  7.82500000E-01
      3.50000000E+00  6.50000000E+00  7.72500000E-01
      4.00000000E+00  6.50000000E+00  7.62500000E-01
      4.50000000E+00  6.50000000E+00  7.52500000E-01
      5.00000000E+00  6.50000000E+00  7.42500000E-01
      5.50000000E+00  6.50000000E+00  7.32500000E-01
      6.00000000E+00  6.50000000E+00  7.22500000E-01
      6.50000000E+00  6.50000000E+00  7.12500000E-01
      7.00000000E+00  6.50000000E+00  7.02500000E-01
      7.50000000E+00  6.50000000E+00  6.92500000E-01
      8.00000000E+00  6.50000000E+00  6.82500000E-01
      8.50000000E+00  6.50000000E+00  6.72500000E-01
      9.00000000E+00  6.50000000E+00  6.62500000E-01
      9.50000000E+00  6.50000000E+00  6.52500000E-01
      1.00000000E+01  6.50000000E+00  6.51666667E-01
      0.00000000E+00  6.00000000E+00  8.08333333E-01
      5.00000000E-01  6.00000000E+00  8.07500000E-01
      1.00000000E+00  6.00000000E+00  7.97500000E-01
      1.50000000E+00  6.00000000E+00  7.87500000E-01
      2.00000000E+00  6.00000000E+00  7.77500000E-01
      2.50000000E+00  6.00000000E+00  7.67500000E-01
      3.00000000E+00  6.00000000E+00  7.57500000E-01
      3.50000000E+00  6.00000000E+00  7.47500000E-01
      4.00000000E+00  6.00000000E+00  7.37500000E-01
      4.50000000E+00  6.00000000E+00  7.27500000E-01
      5.00000000E+00  6.00000000E+00  7.17500000E-01
      5.50000000E+00  6.00000000E+00  7.07500000E-01
      6.00000000E+00  6.00000000E+00  6.97500000E-01
      6.50000000E+00  6.00000000E+00  6.87500000E-01
      7.00000000E+00  6.00000000E+00  6.77500000E-01
      7.50000000E+00  6.00000000E+00  6.67500000E-01
      8.00000000E+00  6.00000000E+00  6.57500000E-01
[...]
POINT_DATA     7056
SCALARS pressure float
LOOKUP_TABLE default
 -0.17505067236986246     
 -0.17414612352980582     
 -0.17396302497452890     
 -0.17385061512055239     
 -0.17374002034847361     
 -0.17364486786432867     
 -0.17353123589747219     
 -0.17343020413925850     
 -0.17331558761011628     
 -0.17319019001215960     
 -0.17305561120999427     
 -0.17287762435850210     
 -0.17266863848724609     
 -0.17240075946942610     
 -0.17205275073088999     
 -0.17158933768624976     
 -0.17096904919815883     
 -0.17008691713446650     
 -0.16925546188069748     
 -0.16625508519713031     
 -0.16565038033241247     
 -0.17345979323891977     
 -0.17289759795896859     
 -0.17182106208275544     
 -0.17203623605576915     
 -0.17198180831844975     
 -0.17193779504464773     
 -0.17188125077030264     
 -0.17180241289818951     
 -0.17170602977250057     
 -0.17158774776815294     
 -0.17143307309798775     
 -0.17123472532712847     
 -0.17097934424982142     
 -0.17063740964174007     
 -0.17017687450972363     
 -0.16955861584542092     
 -0.16872728523404154     
 -0.16760355175215771     
 -0.16632633012364026     
 -0.16322769491184311     
 -0.16307860213667491     
 -0.17272665443642160     
 -0.17185254777287881     
 -0.17039081619960456     
 -0.17056920488414501     
 -0.17029619591986372     
 -0.17006306355975101     
 -0.16982118582098221     
 -0.16955762169868802     
 -0.16927089262827152     
 -0.16894213064756633     
 -0.16855658017553751     
 -0.16809434444402174     
 -0.16752489357636149     
 -0.16681839155838871     
 -0.16593190588251105     
 -0.16481488264432287     
 -0.16341660553255127     
 -0.16165984325214849     
 -0.15965970020878997     
 -0.15580635337482932     
 -0.15482757635650349     
 -0.17210167249994116     
 -0.17168996357276159     
 -0.17002683957820833     
 -0.17006514055332358     
 -0.16963116632106681     
 -0.16923600263687932     
 -0.16880223503281594     
 -0.16833183412399863     
 -0.16780084636755249     
 -0.16719416442027904     
 -0.16649008800335388     
 -0.16565823391354614     
 -0.16466800037586193     
 -0.16348097551069724     
 -0.16205275152168316     
 -0.16033086286936352     
 -0.15825712107125339     
 -0.15576388778132491     
 -0.15291674032726751     
 -0.14825363108313008     
 -0.14753446700292816     
 -0.17129010738313338     
 -0.17107055942661994     
 -0.16908818011934429     
 -0.16889182433569405     
 -0.16825208933500230     
 -0.16761704905254410     
 -0.16692424984807441     
 -0.16615881815427458     
 -0.16530325995910980     
 -0.16433402527081739     
 -0.16322752339287608     
 -0.16195210335398524     
 -0.16047016597255431     
 -0.15873774675181948     
 -0.15670475496982195     
 -0.15431328398750130     
 -0.15150099127207323     
 -0.14819718526412820     
 -0.14444222270222865     
 -0.13907757265760964     
 -0.13853802078957339     
 -0.17022861108034998     
 -0.17014692531835149     
 -0.16784935484458274     
 -0.16734722576165212     
 -0.16641615539147278     
 -0.16545223837790068     
 -0.16440324318443370     
 -0.16325169724272989     
 -0.16197870404307371     
 -0.16056071759118243     
 -0.15896433284760100     
 -0.15715426472582883     
 -0.15508751338949042     
 -0.15271330361284413     
 -0.14997392417371408     
 -0.14680992185222508     
 -0.14319931708778302     
 -0.13914649924189301     
 -0.13465756785867869     
 -0.12873231202401242     
 -0.12825184868674916     
 -0.16880734456826926     
 -0.16877338489762156     
 -0.16612453947501685     
 -0.16520967269286208     
 -0.16389343119872815     
 -0.16250999364538843     
 -0.16101718761060202     
 -0.15939521634742246     
 -0.15761864273471698     
 -0.15565852426063226     
 -0.15347944895588950     
 -0.15103760560759830     
 -0.14828382749602217     
 -0.14517735480499322     
 -0.14171934631383579     
 -0.13789051150753379     
 -0.13364327741322449     
 -0.12893256519277985     
 -0.12373143353625141     
 -0.11725009145096195     
 -0.11675277430024188     
 -0.16682701830306362     
 -0.16675634438062847     
 -0.16370193020090115     
 -0.16227419934029241     
 -0.16048013259397101     
 -0.15858684638073481     
 -0.15655631219271579     
 -0.15436581940607572     
 -0.15198588428545112     
 -0.14938244108441165     
 -0.14651878468679863     
 -0.14338448949487773     
 -0.13998556746053592     
 -0.13628535558951801     
 -0.13224181905594057     
 -0.12781096276534404     
 -0.12293977930555633     
 -0.11757743166728067     
 -0.11154847788891711     
 -0.10412031468406691     
 -0.10354217250183743     
 -0.16404103631470682     
 -0.16387061150901094     
 -0.16035799163723927     
 -0.15830968757532149     
 -0.15592958457117542     
 -0.15341810706563289     
 -0.15074045082611412     
 -0.14787082943594815     
 -0.14479572323015491     
 -0.14153568958565813     
 -0.13808099069438001     
 -0.13439637700511520     
 -0.13044771917434034     
 -0.12619200600221034     
 -0.12158277998267565     
 -0.11656703655297901     
 -0.11093131138029413     
 -0.10459059454791411     
  -9.7688606280309162E-002
  -8.9912264715823087E-002
  -8.9344475683386618E-002
 -0.16015636610420073     
 -0.15986005753255589     
 -0.15580360275827021     
 -0.15300881022858512     
 -0.14991560344366200     
 -0.14666489133003380     
 -0.14326981879657316     
 -0.13976126780621317     
 -0.13611959727952549     
 -0.13231995679161970     
 -0.12833314959691258     
 -0.12412136307722003     
 -0.11965189337523086     
 -0.11484826053138390     
 -0.10947592315459986     
 -0.10360818443179717     
  -9.7286562943494082E-002
  -9.0549393038510950E-002
  -8.3029178305740137E-002
  -7.4516484171384886E-002
  -7.3886221928088705E-002
 -0.15478699547340169     
 -0.15439501678778592     
 -0.14965765259852568     
 -0.14598737948226900     
 -0.14213787218512877     
 -0.13823425877833109     
 -0.13425706044937033     
 -0.13019129161756904     
 -0.12601205301690097     
 -0.12169477474311019     
 -0.11720815168009510     
 -0.11241468349036589     
 -0.10717488931856216     
 -0.10163894303002027     
  -9.5790384088883171E-002
  -8.9657449968115810E-002
  -8.2834922591247653E-002
  -7.5430985274404241E-002
  -6.7476706472495859E-002
  -5.9044255805308574E-002
  -5.8528252485789592E-002
 -0.14744202298183859     
 -0.14703926568445627     
 -0.14160949937054301     
 -0.13719387578001932     
 -0.13270648264819687     
 -0.12819812448158502     
 -0.12365098960828831     
 -0.11905820449002827     
 -0.11434560859652089     
 -0.10931924597201961     
 -0.10410323446514899     
  -9.8728482700665809E-002
  -9.3207759537870583E-002
  -8.7491116813419770E-002
  -8.1180053706718283E-002
  -7.4528613332072530E-002
  -6.7478278438452055E-002
  -6.0186820530825441E-002
  -5.2099917883663117E-002
  -4.3297777187547397E-002
  -4.2784214656465827E-002
 -0.13813745748201142     
 -0.13773611577160239     
 -0.13174503266262871     
 -0.12661253712538881     
 -0.12149413016484048     
 -0.11640679416430499     
 -0.11117350939493166     
 -0.10579622628070696     
 -0.10041074293917696     
  -9.5029127199787511E-002
  -8.9660224762956528E-002
  -8.3978877573644042E-002
  -7.8072984409121221E-002
  -7.1978871885557141E-002
  -6.5683942205296844E-002
  -5.9313148105072218E-002
  -5.2261616529481636E-002
  -4.4736901441539662E-002
  -3.6817294106729452E-002
  -2.8311016062803653E-002
  -2.7998858715616800E-002
 -0.12688358052677245     
 -0.12642176366700744     
 -0.11989128271816576     
 -0.11403367412253493     
 -0.10801725942467313     
 -0.10210027910521624     
  -9.6343120646572786E-002
  -9.0761755358960791E-002
  -8.5123495791772016E-002
  -7.9381225974789776E-002
  -7.3651471386136050E-002
  -6.7913921573346026E-002
  -6.2205634272240830E-002
  -5.6383448261641454E-002
  -5.0202334642600377E-002
  -4.3770788591572407E-002
  -3.7079658087526425E-002
  -2.9840557949242823E-002
  -2.1859417002164958E-002
  -1.4061136166080209E-002
  -1.4206599454818038E-002
 -0.11337084560279850     
 -0.11285297269141840     
 -0.10541550589763567     
  -9.8656499546466075E-002
  -9.2240151508365328E-002
  -8.6042809996609793E-002
  -7.9870961406037000E-002
  -7.3913038073036424E-002
  -6.8157127771004966E-002
  -6.2608849502438044E-002
  -5.7193495012475101E-002
  -5.1634943861086822E-002
  -4.6052980880956933E-002
  -4.0427561124255544E-002
  -3.4719395940251814E-002
  -2.8801649904107766E-002
  -2.2513394206284548E-002
  -1.5113660982324029E-002
  -2.6490266869355337E-003
   1.6682711506491332E-005
  -2.5007517832155613E-003
  -9.6786578383701527E-002
  -9.6298464302640954E-002
  -8.8657380947287867E-002
  -8.1304908976368995E-002
  -7.4336444658500075E-002
  -6.7841129778612605E-002
  -6.1877216572287556E-002
  -5.6236547613061856E-002
  -5.0693182683753973E-002
  -4.5319693018203794E-002
  -4.0104769925942065E-002
  -3.5077700213078010E-002
  -3.0034372796674137E-002
  -2.4891337675039669E-002
  -1.9296562016485268E-002
  -1.4323603366154019E-002
  -9.0319451243274194E-003
   3.5627330367832234E-004
   1.7748490080935174E-003
   1.5304569662732918E-003
   6.7091819929748829E-004
  -7.7952759530472482E-002
  -7.7465771573357864E-002
  -6.9281130505411639E-002
  -6.1936525607908667E-002
  -5.5061991828653477E-002
  -4.8529638820144674E-002
  -4.2808541517278281E-002
  -3.7671057111072631E-002
  -3.2813780650808137E-002
  -2.8014859283901940E-002
  -2.3100076814161829E-002
  -1.8447436357576518E-002
  -1.4381004783142278E-002
  -9.9193788312278292E-003
   4.8662173705449604E-005
   7.3508281349870055E-004
   1.6006834698207495E-003
   2.5148340747065466E-003
   4.5842283105112756E-003
   4.3937040712809239E-003
   2.5253061252680088E-003
  -5.6918627924375173E-002
  -5.6465301938564742E-002
  -4.8312227998485058E-002
  -4.1042879514779841E-002
  -3.4450836280656136E-002
  -2.7651394158389988E-002
  -2.2824497413970850E-002
  -1.8796191343702803E-002
  -1.5052636803727745E-002
  -1.1142277440461238E-002
  -4.4032813911663842E-003
   3.9462786687686992E-004
   1.0389991230385538E-003
   1.6859985042693318E-003
   2.3535003743225518E-003
   3.2655922014520910E-003
   4.6171226714133359E-003
   5.8160323356091443E-003
   7.8011548475451845E-003
   6.7004821784754521E-003
   4.1875803966474308E-003
  -3.3514941797520070E-002
  -3.2635457858156469E-002
  -2.5394463228209742E-002
  -1.7906187698664932E-002
  -1.2501005778681183E-002
   1.7779842688482009E-004
   9.3718409723747402E-004
   1.6843544193279681E-003
   2.3406108463885559E-003
   2.9750481988547145E-003
   3.5807026001091050E-003
   4.2941140335110298E-003
   5.2918784765929785E-003
   6.3020834133830864E-003
   7.3034294209738237E-003
   8.2531709326939210E-003
   9.2265043430722372E-003
   1.0180789272816496E-002
   1.1855791096057203E-002
   9.3334190216540769E-003
   5.6914003618132869E-003
  -7.8308795643115946E-003
   1.1212976856981994E-004
   1.3350854987306203E-003
   2.2867274572543048E-003
   2.9659400698585419E-003
   3.6015386635709105E-003
   4.3805371218046119E-003
   5.2114297782331004E-003
   5.8633597226544661E-003
   6.4718967645997182E-003
   7.0519824533611048E-003
   7.5564399374624218E-003
   7.9857439871744481E-003
   8.4096117823830377E-003
   8.8694179960964927E-003
   9.3822869713945933E-003
   9.9766992458533276E-003
   1.0636969388188235E-002
   1.1570929724524826E-002
   1.1022620538732189E-002
   7.6178497878998932E-003
  -1.6546232518654118E-003
   2.5727553786579883E-004
   1.8158170617761202E-003
   4.2671145646680795E-003
   5.4875170446494871E-003
   6.6271016370896803E-003
   7.1948802917220856E-003
   7.3376915685209694E-003
   7.3576449175192680E-003
   7.3395866805264004E-003
   7.3213030740161868E-003
   7.3228162298514558E-003
   7.3558961277468485E-003
   7.4277776246590597E-003
   7.5425479080029750E-003
   7.7050864355018072E-003
   7.9260988500833192E-003
   8.2246153366715615E-003
   8.6704325898102237E-003
   9.1676494985840438E-003
   9.3451179467480654E-003
 -0.16921061933996609     
 -0.16835212629490215     
 -0.16816899650822126     
 -0.16805618612465847     
 -0.16794523131109740     
 -0.16784978935759373     
 -0.16773595512186484     
 -0.16763472731592316     
 -0.16751993923396702     
 -0.16739435533424107     
 -0.16725952957255094     
 -0.16708126493460035     
 -0.16687189751744363     
 -0.16660353727203314     
 -0.16625493283973544     
 -0.16579079937146293     
 -0.16516961831484384     
 -0.16428660031005865     
 -0.16345275336521348     
 -0.16045029507723765     
 -0.15994232165060210     
 -0.16767258956459072     
 -0.16719808931449892     
 -0.16612262723566176     
 -0.16633837949393226     
 -0.16628455498478603     
 -0.16624099316462104     
 -0.16618478125134284     
 -0.16610616693438887     
 -0.16600985554669936     
 -0.16589148777352863     
 -0.16573658891487572     
 -0.16553786428618245     
 -0.16528194838724078     
 -0.16493933613118708     
 -0.16447795308003804     
 -0.16385861342933417     
 -0.16302587169099284     
 -0.16190035282498183     
 -0.16061975543986812     
 -0.15751920202730427     
 -0.15746220411099188     
 -0.16694154150626442     
 -0.16616027032166683     
 -0.16469943362503900     
 -0.16487812356095369     
 -0.16460529931356152     
 -0.16437208286928473     
 -0.16413002940668553     
 -0.16386618384305021     
 -0.16357905356850783     
 -0.16324978948181187     
 -0.16286363297440157     
 -0.16240066175104148     
 -0.16183031057754946     
 -0.16112263091222381     
 -0.16023455868057906     
 -0.15911538582554791     
 -0.15771434832247325     
 -0.15595452893169948     
 -0.15395006155198349     
 -0.15009446916938235     
 -0.14920391808870617     
 -0.16631627161746101     
 -0.16599933044784201     
 -0.16433621313658386     
 -0.16437485141554209     
 -0.16394090502538750     
 -0.16354546733470041     
 -0.16311135572104085     
 -0.16264047523561245     
 -0.16210889081127916     
 -0.16150145057573434     
 -0.16079637010283826     
 -0.15996315141468326     
 -0.15897103235103291     
 -0.15778150849529318     
 -0.15635027830329865     
 -0.15462492821514803     
 -0.15254723185458080     
 -0.15004968196015822     
 -0.14719708032396955     
 -0.14253033788900016     
 -0.14189271590681335     
 -0.16550449063637751     
 -0.16538054241927028     
 -0.16339749781982690     
 -0.16320129311918327     
 -0.16256139961938335     
 -0.16192595410963981     
 -0.16123263194207221     
 -0.16046645962709674     
 -0.15960982555140438     
 -0.15863904835464931     
 -0.15753040179331218     
 -0.15625226909134660     
 -0.15476713092680019     
 -0.15303094423417091     
 -0.15099362158328683     
 -0.14859733029576697     
 -0.14577977049499494     
 -0.14246995114367211     
 -0.13870485135157437     
 -0.13332930265454224     
 -0.13286545926510152     
 -0.16444244402960331     
 -0.16445657336988320     
 -0.16215808804643234     
 -0.16165583156187194     
 -0.16072441051063274     
 -0.15975975398691752     
 -0.15870961464909766     
 -0.15755635453822861     
 -0.15628103699815660     
 -0.15486020933229411     
 -0.15326042588292807     
 -0.15144633595134696     
 -0.14937497480267026     
 -0.14699561772479883     
 -0.14425055805759579     
 -0.14107942343122157     
 -0.13745757038274545     
 -0.13339178851065792     
 -0.12888865373945430     
 -0.12295209989190176     
 -0.12254061753139316     
 -0.16302000239447420     
 -0.16308194137081614     
 -0.16043197762021472     
 -0.15951638583055339     
 -0.15819902922946985     
 -0.15681373100804619     
 -0.15531850546045789     
 -0.15369358598625529     
 -0.15191343271424290     
 -0.14994909125597009     
 -0.14776519464147006     
 -0.14531797240463964     
 -0.14255799979643966     
 -0.13944275266922490     
 -0.13597250532280092     
 -0.13213074190454463     
 -0.12786987432239416     
 -0.12314475995056240     
 -0.11792790078569895     
 -0.11143525072990890     
 -0.11099761948878813     
 -0.16103763144566463     
 -0.16106254306455492     
 -0.15800604558985751     
 -0.15657622328168322     
 -0.15477976551092906     
 -0.15288340194135880     
 -0.15084912953200535     
 -0.14865425439790703     
 -0.14626933297098402     
 -0.14366026739922805     
 -0.14078946277420454     
 -0.13764441029295582     
 -0.13423309597153074     
 -0.13052000746016590     
 -0.12646289455674087     
 -0.12201789929450493     
 -0.11713182247907582     
 -0.11175451168657748     
 -0.10571680850866343     
  -9.8277230534604729E-002
  -9.7750915806212132E-002
 -0.15824768733590158     
 -0.15817103947105984     
 -0.15465515240940567     
 -0.15260347852431597     
 -0.15021956332994418     
 -0.14770354187576512     
 -0.14502074217520669     
 -0.14214504032559289     
 -0.13906106970114290     
 -0.13578913378523913     
 -0.13232203932839615     
 -0.12862449397972475     
 -0.12466240657486036     
 -0.12039282320939021     
 -0.11576892055045086     
 -0.11073946132793838     
 -0.10509602744027263     
  -9.8738198503332680E-002
  -9.1817478736872793E-002
  -8.4027474581489306E-002
  -8.3498099867339304E-002
 -0.15435666249443242     
 -0.15415018976857542     
 -0.15008985438410724     
 -0.14729014788258371     
 -0.14419164960852657     
 -0.14093395863126690     
 -0.13752802824989627     
 -0.13400727545254257     
 -0.13035306720395790     
 -0.12654037901869525     
 -0.12254027483072996     
 -0.11831474089044715     
 -0.11383101342185624     
 -0.10901590419468553     
 -0.10363452323294398     
  -9.7750514949524567E-002
  -9.1411504587651654E-002
  -8.4655659232400884E-002
  -7.7124947024760526E-002
  -6.8602361295504288E-002
  -6.8000757765625683E-002
 -0.14897788559262981     
 -0.14867001299338797     
 -0.14392848169676298     
 -0.14024968504183508     
 -0.13638807743910777     
 -0.13247189033285411     
 -0.12848176984862583     
 -0.12440283055595402     
 -0.12021020615705066     
 -0.11587892769515995     
 -0.11137946269882872     
 -0.10657837978579338     
 -0.10132562118191288     
  -9.5774361404468711E-002
  -8.9909014156632661E-002
  -8.3759530081726610E-002
  -7.6927283358669649E-002
  -6.9508372102139768E-002
  -6.1539147830101781E-002
  -5.3099885152922160E-002
  -5.2602616932966396E-002
 -0.14161835866779166     
 -0.14129228374495048     
 -0.13585151054109160     
 -0.13142237443493859     
 -0.12692153251034663     
 -0.12239960806860339     
 -0.11783856854919743     
 -0.11323205682487970     
 -0.10850950924330589     
 -0.10347423104004191     
  -9.8243758606199882E-002
  -9.2854054133997541E-002
  -8.7317555112164755E-002
  -8.1590869603089936E-002
  -7.5267505549317715E-002
  -6.8602818851514882E-002
  -6.1538984631857703E-002
  -5.4233001355102506E-002
  -4.6137479350096655E-002
  -3.7329591833129824E-002
  -3.6825649992760917E-002
 -0.13228746319849177     
 -0.13195308136683509     
 -0.12595007655091089     
 -0.12080317823192049     
 -0.11567003607573352     
 -0.11057018737150529     
 -0.10533031858008618     
  -9.9938783182011826E-002
  -9.4538789780570814E-002
  -8.9142109872350481E-002
  -8.3759035346812546E-002
  -7.8069865467315591E-002
  -7.2151784090404528E-002
  -6.6046392859057473E-002
  -5.9739925247112774E-002
  -5.3359699977339449E-002
  -4.6298725212045332E-002
  -3.8765460090816953E-002
  -3.0836684069610414E-002
  -2.2326874797391885E-002
  -2.2018981717560154E-002
 -0.12100571223932047     
 -0.12059894998226926     
 -0.11405561049680425     
 -0.10818790596896406     
 -0.10216038401931078     
  -9.6228761444072081E-002
  -9.0456465170769593E-002
  -8.4860354768423629E-002
  -7.9214960184602251E-002
  -7.3461013280137891E-002
  -6.7720418806595781E-002
  -6.1972060824228646E-002
  -5.6252985375688590E-002
  -5.0424752728289154E-002
  -4.4236275395424199E-002
  -3.7797557607486140E-002
  -3.1099165658334031E-002
  -2.3850614815926426E-002
  -1.5864085899318613E-002
  -8.0668827252770286E-003
  -8.2138764470521732E-003
 -0.10746807656759677     
 -0.10699576517003198     
  -9.9545478634756990E-002