# vtk DataFile Version 2.0
3D Unstructured Grid of Linear Triangles
ASCII
DATASET UNSTRUCTURED_GRID
FIELD FieldData  1
TIME 1 1 double
           0.00000
POINTS     1320 float
      0.00000000E+00  2.70000000E-02  1.00005200E-03
      5.00000000E-02  2.70000000E-02  1.00004767E-03
      1.00000000E-01  2.70000000E-02  1.00004550E-03
      1.50000000E-01  2.70000000E-02  1.00004550E-03
      2.00000000E-01  2.70000000E-02  1.00004550E-03
      2.50000000E-01  2.70000000E-02  1.00004550E-03
      3.00000000E-01  2.70000000E-02  1.00004550E-03
      3.50000000E-01  2.70000000E-02  1.00004550E-03
      4.00000000E-01  2.70000000E-02  1.00004550E-03
      4.50000000E-01  2.70000000E-02  1.00004550E-03
      5.00000000E-01  2.70000000E-02  1.00004550E-03
      0.00000000E+00  2.40000000E-02  1.00005200E-03
      5.00000000E-02  2.40000000E-02  1.00004875E-03
      1.00000000E-01  2.40000000E-02  1.00004333E-03
      1.50000000E-01  2.40000000E-02  1.00004225E-03
      2.00000000E-01  2.40000000E-02  1.00004225E-03
      2.50000000E-01  2.40000000E-02  1.00004225E-03
      3.00000000E-01  2.40000000E-02  1.00004225E-03
      3.50000000E-01  2.40000000E-02  1.00004225E-03
      4.00000000E-01  2.40000000E-02  1.00004225E-03
      4.50000000E-01  2.40000000E-02  1.00004225E-03
      5.00000000E-01  2.40000000E-02  1.00004333E-03
      0.00000000E+00  2.10000000E-02  1.00005200E-03
      5.00000000E-02  2.10000000E-02  1.00004875E-03
      1.00000000E-01  2.10000000E-02  1.00004225E-03
      1.50000000E-01  2.10000000E-02  1.00003683E-03
      2.00000000E-01  2.10000000E-02  1.00003575E-03
      2.50000000E-01  2.10000000E-02  1.00003575E-03
      3.00000000E-01  2.10000000E-02  1.00003575E-03
      3.50000000E-01  2.10000000E-02  1.00003575E-03
      4.00000000E-01  2.10000000E-02  1.00003575E-03
      4.50000000E-01  2.10000000E-02  1.00003575E-03
      5.00000000E-01  2.10000000E-02  1.00003683E-03
      0.00000000E+00  1.80000000E-02  1.00005200E-03
      5.00000000E-02  1.80000000E-02  1.00004875E-03
      1.00000000E-01  1.80000000E-02  1.00004225E-03
      1.50000000E-01  1.80000000E-02  1.00003575E-03
      2.00000000E-01  1.80000000E-02  1.00003033E-03
      2.50000000E-01  1.80000000E-02  1.00002925E-03
      3.00000000E-01  1.80000000E-02  1.00002925E-03
      3.50000000E-01  1.80000000E-02  1.00002925E-03
      4.00000000E-01  1.80000000E-02  1.00002925E-03
      4.50000000E-01  1.80000000E-02  1.00002925E-03
      5.00000000E-01  1.80000000E-02  1.00003033E-03
      0.00000000E+00  1.50000000E-02  1.00005200E-03
      5.00000000E-02  1.50000000E-02  1.00004875E-03
      1.00000000E-01  1.50000000E-02  1.00004225E-03
      1.50000000E-01  1.50000000E-02  1.00003575E-03
      2.00000000E-01  1.50000000E-02  1.00002925E-03
      2.50000000E-01  1.50000000E-02  1.00002383E-03
      3.00000000E-01  1.50000000E-02  1.00002275E-03
      3.50000000E-01  1.50000000E-02  1.00002275E-03
      4.00000000E-01  1.50000000E-02  1.00002275E-03
      4.50000000E-01  1.50000000E-02  1.00002275E-03
      5.00000000E-01  1.50000000E-02  1.00002383E-03
      0.00000000E+00  1.20000000E-02  1.00005200E-03
      5.00000000E-02  1.20000000E-02  1.00004875E-03
      1.00000000E-01  1.20000000E-02  1.00004225E-03
      1.50000000E-01  1.20000000E-02  1.00003575E-03
      2.00000000E-01  1.20000000E-02  1.00002925E-03
      2.50000000E-01  1.20000000E-02  1.00002275E-03
      3.00000000E-01  1.20000000E-02  1.00001733E-03
      3.50000000E-01  1.20000000E-02  1.00001625E-03
      4.00000000E-01  1.20000000E-02  1.00001625E-03
      4.50000000E-01  1.20000000E-02  1.00001625E-03
      5.00000000E-01  1.20000000E-02  1.00001733E-03
      0.00000000E+00  9.00000000E-03  1.00005200E-03
      5.00000000E-02  9.00000000E-03  1.00004875E-03
      1.00000000E-01  9.00000000E-03  1.00004225E-03
      1.50000000E-01  9.00000000E-03  1.00003575E-03
      2.00000000E-01  9.00000000E-03  1.00002925E-03
      2.50000000E-01  9.00000000E-03  1.00002275E-03
      3.00000000E-01  9.00000000E-03  1.00001625E-03
      3.50000000E-01  9.00000000E-03  1.00001083E-03
      4.00000000E-01  9.00000000E-03  1.00000975E-03
      4.50000000E-01  9.00000000E-03  1.00000975E-03
      5.00000000E-01  9.00000000E-03  1.00001083E-03
      0.00000000E+00  6.00000000E-03  1.00005200E-03
      5.00000000E-02  6.00000000E-03  1.00004875E-03
      1.00000000E-01  6.00000000E-03  1.00004225E-03
      1.50000000E-01  6.00000000E-03  1.00003575E-03
      2.00000000E-01  6.00000000E-03  1.00002925E-03
      2.50000000E-01  6.00000000E-03  1.00002275E-03
      3.00000000E-01  6.00000000E-03  1.00001625E-03
      3.50000000E-01  6.00000000E-03  1.00000975E-03
      4.00000000E-01  6.00000000E-03  1.00000433E-03
      4.50000000E-01  6.00000000E-03  1.00000325E-03
      5.00000000E-01  6.00000000E-03  1.00000433E-03
      0.00000000E+00  3.00000000E-03  1.00005200E-03
      5.00000000E-02  3.00000000E-03  1.00004875E-03
      1.00000000E-01  3.00000000E-03  1.00004225E-03
      1.50000000E-01  3.00000000E-03  1.00003575E-03
      2.00000000E-01  3.00000000E-03  1.00002925E-03
      2.50000000E-01  3.00000000E-03  1.00002275E-03
      3.00000000E-01  3.00000000E-03  1.00001625E-03
      3.50000000E-01  3.00000000E-03  1.00000975E-03
      4.00000000E-01  3.00000000E-03  1.00000325E-03
      4.50000000E-01  3.00000000E-03  9.96666667E-04
      5.00000000E-01  3.00000000E-03  9.96666667E-04
      0.00000000E+00  0.00000000E+00  1.00005200E-03
      5.00000000E-02  0.00000000E+00  1.00004983E-03
      1.00000000E-01  0.00000000E+00  1.00004333E-03
      1.50000000E-01  0.00000000E+00  1.00003683E-03
      2.00000000E-01  0.00000000E+00  1.00003033E-03
      2.50000000E-01  0.00000000E+00  1.00002383E-03
      3.00000000E-01  0.00000000E+00  1.00001733E-03
      3.50000000E-01  0.00000000E+00  1.00001083E-03
      4.00000000E-01  0.00000000E+00  1.00000433E-03
      4.50000000E-01  0.00000000E+00  9.96666667E-04
      5.00000000E-01  0.00000000E+00  9.90000000E-04
      0.00000000E+00  2.70000000E-02 -4.89999480E-02
      5.00000000E-02  2.70000000E-02 -4.89999523E-02
      1.00000000E-01  2.70000000E-02 -4.89999545E-02
      1.50000000E-01  2.70000000E-02 -4.89999545E-02
      2.00000000E-01  2.70000000E-02 -4.89999545E-02
      2.50000000E-01  2.70000000E-02 -4.89999545E-02
      3.00000000E-01  2.70000000E-02 -4.89999545E-02
      3.50000000E-01  2.70000000E-02 -4.89999545E-02
      4.00000000E-01  2.70000000E-02 -4.89999545E-02
      4.50000000E-01  2.70000000E-02 -4.89999545E-02
      5.00000000E-01  2.70000000E-02 -4.89999545E-02
      0.00000000E+00  2.40000000E-02 -4.89999480E-02
      5.00000000E-02  2.40000000E-02 -4.89999512E-02
      1.00000000E-01  2.40000000E-02 -4.89999567E-02
      1.50000000E-01  2.40000000E-02 -4.89999578E-02
      2.00000000E-01  2.40000000E-02 -4.89999578E-02
      2.50000000E-01  2.40000000E-02 -4.89999578E-02
      3.00000000E-01  2.40000000E-02 -4.89999578E-02
      3.50000000E-01  2.40000000E-02 -4.89999578E-02
      4.00000000E-01  2.40000000E-02 -4.89999578E-02
      4.50000000E-01  2.40000000E-02 -4.89999578E-02
      5.00000000E-01  2.40000000E-02 -4.89999567E-02
      0.00000000E+00  2.10000000E-02 -4.89999480E-02
      5.00000000E-02  2.10000000E-02 -4.89999512E-02
      1.00000000E-01  2.10000000E-02 -4.89999578E-02
      1.50000000E-01  2.10000000E-02 -4.89999632E-02
      2.00000000E-01  2.10000000E-02 -4.89999642E-02
      2.50000000E-01  2.10000000E-02 -4.89999642E-02
      3.00000000E-01  2.10000000E-02 -4.89999642E-02
      3.50000000E-01  2.10000000E-02 -4.89999642E-02
      4.00000000E-01  2.10000000E-02 -4.89999642E-02
      4.50000000E-01  2.10000000E-02 -4.89999642E-02
      5.00000000E-01  2.10000000E-02 -4.89999632E-02
      0.00000000E+00  1.80000000E-02 -4.89999480E-02
      5.00000000E-02  1.80000000E-02 -4.89999512E-02
      1.00000000E-01  1.80000000E-02 -4.89999578E-02
      1.50000000E-01  1.80000000E-02 -4.89999642E-02
      2.00000000E-01  1.80000000E-02 -4.89999697E-02
      2.50000000E-01  1.80000000E-02 -4.89999708E-02
      3.00000000E-01  1.80000000E-02 -4.89999708E-02
      3.50000000E-01  1.80000000E-02 -4.89999708E-02
      4.00000000E-01  1.80000000E-02 -4.89999708E-02
      4.50000000E-01  1.80000000E-02 -4.89999708E-02
      5.00000000E-01  1.80000000E-02 -4.89999697E-02
      0.00000000E+00  1.50000000E-02 -4.89999480E-02
      5.00000000E-02  1.50000000E-02 -4.89999512E-02
      1.00000000E-01  1.50000000E-02 -4.89999578E-02
      1.50000000E-01  1.50000000E-02 -4.89999642E-02
      2.00000000E-01  1.50000000E-02 -4.89999708E-02
      2.50000000E-01  1.50000000E-02 -4.89999762E-02
      3.00000000E-01  1.50000000E-02 -4.89999772E-02
      3.50000000E-01  1.50000000E-02 -4.89999772E-02
      4.00000000E-01  1.50000000E-02 -4.89999772E-02
      4.50000000E-01  1.50000000E-02 -4.89999772E-02
      5.00000000E-01  1.50000000E-02 -4.89999762E-02
      0.00000000E+00  1.20000000E-02 -4.89999480E-02
      5.00000000E-02  1.20000000E-02 -4.89999512E-02
      1.00000000E-01  1.20000000E-02 -4.89999578E-02
      1.50000000E-01  1.20000000E-02 -4.89999642E-02
      2.00000000E-01  1.20000000E-02 -4.89999708E-02
      2.50000000E-01  1.20000000E-02 -4.89999772E-02
      3.00000000E-01  1.20000000E-02 -4.89999827E-02
      3.50000000E-01  1.20000000E-02 -4.89999838E-02
      4.00000000E-01  1.20000000E-02 -4.89999838E-02
      4.50000000E-01  1.20000000E-02 -4.89999838E-02
      5.00000000E-01  1.20000000E-02 -4.89999827E-02
      0.00000000E+00  9.00000000E-03 -4.89999480E-02
      5.00000000E-02  9.00000000E-03 -4.89999512E-02
      1.00000000E-01  9.00000000E-03 -4.89999578E-02
      1.50000000E-01  9.00000000E-03 -4.89999642E-02
      2.00000000E-01  9.00000000E-03 -4.89999708E-02
      2.50000000E-01  9.00000000E-03 -4.89999772E-02
      3.00000000E-01  9.00000000E-03 -4.89999838E-02
      3.50000000E-01  9.00000000E-03 -4.89999892E-02
      4.00000000E-01  9.00000000E-03 -4.89999903E-02
[...]
POINT_DATA     1320
SCALARS pressure float
LOOKUP_TABLE default
 -0.55000000000000016     
 -0.55000000000000016     
 -0.55000000000000016     
 -0.55000000000000016     
 -0.55000000000000016     
 -0.55000000000000016     
 -0.55000000000000016     
 -0.55000000000000016     
 -0.55000000000000016     
 -0.55000000000000016     
 -0.55000000000000016     
 -0.55000000000000016     
 -0.55000000000000016     
 -0.55000000000000016     
 -0.55000000000000016     
 -0.55000000000000016     
 -0.55000000000000016     
 -0.55000000000000016     
 -0.55000000000000016     
 -0.55000000000000016     
 -0.55000000000000016     
 -0.55000000000000016     
 -0.55000000000000016     
 -0.55000000000000016     
 -0.55000000000000016     
 -0.55000000000000016     
 -0.55000000000000016     
 -0.55000000000000016     
 -0.55000000000000016     
 -0.55000000000000016     
 -0.55000000000000016     
 -0.55000000000000016     
 -0.55000000000000016     
 -0.55000000000000016     
 -0.55000000000000016     
 -0.55000000000000016     
 -0.55000000000000016     
 -0.55000000000000016     
 -0.55000000000000016     
 -0.55000000000000016     
 -0.55000000000000016     
 -0.55000000000000016     
 -0.55000000000000016     
 -0.55000000000000016     
 -0.55000000000000016     
 -0.55000000000000016     
 -0.55000000000000016     
 -0.55000000000000016     
 -0.55000000000000016     
 -0.55000000000000016     
 -0.55000000000000016     
 -0.55000000000000016     
 -0.55000000000000016     
 -0.55000000000000016     
 -0.55000000000000016     
 -0.55000000000000016     
 -0.55000000000000016     
 -0.55000000000000016     
 -0.55000000000000016     
 -0.55000000000000016     
 -0.55000000000000016     
 -0.55000000000000016     
 -0.55000000000000016     
 -0.55000000000000016     
 -0.55000000000000016     
 -0.55000000000000016     
 -0.55000000000000016     
 -0.55000000000000016     
 -0.55000000000000016     
 -0.55000000000000016     
 -0.55000000000000016     
 -0.55000000000000016     
 -0.55000000000000016     
 -0.55000000000000016     
 -0.55000000000000016     
 -0.55000000000000016     
 -0.55000000000000016     
 -0.55000000000000016     
 -0.55000000000000016     
 -0.55000000000000016     
 -0.55000000000000016     
 -0.55000000000000016     
 -0.55000000000000016     
 -0.55000000000000016     
 -0.55000000000000016     
 -0.55000000000000016     
 -0.55000000000000016     
 -0.55000000000000016     
 -0.55000000000000016     
 -0.55000000000000016     
 -0.55000000000000016     
 -0.55000000000000016     
 -0.55000000000000016     
 -0.55000000000000016     
 -0.55000000000000016     
 -0.55000000000000016     
 -0.55000000000000016     
 -0.55000000000000016     
 -0.55000000000000016     
 -0.55000000000000016     
 -0.55000000000000016     
 -0.55000000000000016     
 -0.55000000000000016     
 -0.55000000000000016     
 -0.55000000000000016     
 -0.55000000000000016     
 -0.55000000000000016     
 -0.55000000000000016     
 -0.55000000000000016     
 -0.55000000000000016     
 -0.50000000000000022     
 -0.50000000000000022     
 -0.50000000000000011     
 -0.50000000000000011     
 -0.50000000000000011     
 -0.50000000000000011     
 -0.50000000000000011     
 -0.50000000000000011     
 -0.50000000000000011     
 -0.50000000000000011     
 -0.50000000000000011     
 -0.50000000000000022     
 -0.50000000000000011     
 -0.50000000000000011     
 -0.50000000000000011     
 -0.50000000000000011     
 -0.50000000000000011     
 -0.50000000000000011     
 -0.50000000000000011     
 -0.50000000000000011     
 -0.50000000000000011     
 -0.50000000000000011     
 -0.50000000000000022     
 -0.50000000000000011     
 -0.50000000000000011     
 -0.50000000000000011     
 -0.50000000000000022     
 -0.50000000000000022     
 -0.50000000000000022     
 -0.50000000000000022     
 -0.50000000000000022     
 -0.50000000000000022     
 -0.50000000000000011     
 -0.50000000000000022     
 -0.50000000000000011     
 -0.50000000000000011     
 -0.50000000000000022     
 -0.50000000000000022     
 -0.50000000000000022     
 -0.50000000000000022     
 -0.50000000000000022     
 -0.50000000000000022     
 -0.50000000000000022     
 -0.50000000000000022     
 -0.50000000000000022     
 -0.50000000000000011     
 -0.50000000000000011     
 -0.50000000000000022     
 -0.50000000000000022     
 -0.50000000000000022     
 -0.50000000000000011     
 -0.50000000000000011     
 -0.50000000000000011     
 -0.50000000000000011     
 -0.50000000000000022     
 -0.50000000000000022     
 -0.50000000000000011     
 -0.50000000000000011     
 -0.50000000000000022     
 -0.50000000000000022     
 -0.50000000000000011     
 -0.50000000000000011     
 -0.50000000000000011     
 -0.50000000000000011     
 -0.50000000000000011     
 -0.50000000000000011     
 -0.50000000000000022     
 -0.50000000000000011     
 -0.50000000000000011     
 -0.50000000000000022     
 -0.50000000000000022     
 -0.50000000000000011     
 -0.50000000000000011     
 -0.50000000000000011     
 -0.50000000000000011     
 -0.50000000000000011     
 -0.50000000000000011     
 -0.50000000000000022     
 -0.50000000000000011     
 -0.50000000000000011     
 -0.50000000000000022     
 -0.50000000000000022     
 -0.50000000000000011     
 -0.50000000000000011     
 -0.50000000000000011     
 -0.50000000000000011     
 -0.50000000000000011     
 -0.50000000000000011     
 -0.50000000000000022     
 -0.50000000000000011     
 -0.50000000000000011     
 -0.50000000000000022     
 -0.50000000000000022     
 -0.50000000000000011     
 -0.50000000000000011     
 -0.50000000000000011     
 -0.50000000000000011     
 -0.50000000000000022     
 -0.50000000000000022     
 -0.50000000000000022     
 -0.50000000000000011     
 -0.50000000000000011     
 -0.50000000000000011     
 -0.50000000000000022     
 -0.50000000000000022     
 -0.50000000000000011     
 -0.50000000000000011     
 -0.50000000000000011     
 -0.50000000000000022     
 -0.50000000000000011     
 -0.45000000000000018     
 -0.45000000000000018     
 -0.45000000000000018     
 -0.45000000000000018     
 -0.45000000000000018     
 -0.45000000000000018     
 -0.45000000000000018     
 -0.45000000000000018     
 -0.45000000000000018     
 -0.45000000000000018     
 -0.45000000000000018     
 -0.45000000000000018     
 -0.45000000000000012     
 -0.45000000000000012     
 -0.45000000000000007     
 -0.45000000000000007     
 -0.45000000000000007     
 -0.45000000000000007     
 -0.45000000000000007     
 -0.45000000000000007     
 -0.45000000000000007     
 -0.45000000000000012     
 -0.45000000000000018     
 -0.45000000000000012     
 -0.45000000000000007     
 -0.45000000000000007     
 -0.45000000000000018     
 -0.45000000000000018     
 -0.45000000000000018     
 -0.45000000000000018     
 -0.45000000000000018     
 -0.45000000000000018     
 -0.45000000000000007     
 -0.45000000000000018     
 -0.45000000000000012     
 -0.45000000000000007     
 -0.45000000000000018     
 -0.45000000000000018     
 -0.45000000000000018     
 -0.45000000000000018     
 -0.45000000000000018     
 -0.45000000000000018     
 -0.45000000000000018     
 -0.45000000000000018     
 -0.45000000000000018     
 -0.45000000000000012     
 -0.45000000000000007     
 -0.45000000000000018     
 -0.45000000000000018     
 -0.45000000000000018     
 -0.45000000000000018     
 -0.45000000000000018     
 -0.45000000000000018     
 -0.45000000000000018     
 -0.45000000000000018     
 -0.45000000000000018     
 -0.45000000000000012     
 -0.45000000000000007     
 -0.45000000000000018     
 -0.45000000000000018     
 -0.45000000000000018     
 -0.45000000000000018     
 -0.45000000000000012     
 -0.45000000000000012     
 -0.45000000000000012     
 -0.45000000000000018     
 -0.45000000000000018     
 -0.45000000000000012     
 -0.45000000000000007     
 -0.45000000000000018     
 -0.45000000000000018     
 -0.45000000000000018     
 -0.45000000000000012     
 -0.45000000000000012     
 -0.45000000000000012     
 -0.45000000000000012     
 -0.45000000000000012     
 -0.45000000000000018     
 -0.45000000000000012     
 -0.45000000000000007     
 -0.45000000000000018     
 -0.45000000000000018     
 -0.45000000000000018     
 -0.45000000000000012     
 -0.45000000000000012     
 -0.45000000000000012     
 -0.45000000000000012     
 -0.45000000000000012     
 -0.45000000000000018     
 -0.45000000000000012     
 -0.45000000000000007     
 -0.45000000000000018     
 -0.45000000000000018     
 -0.45000000000000018     
 -0.45000000000000012     
 -0.45000000000000012     
 -0.45000000000000012     
 -0.45000000000000018     
 -0.45000000000000018     
 -0.45000000000000018     
 -0.45000000000000012     
 -0.45000000000000012     
 -0.45000000000000007     
 -0.45000000000000018     
 -0.45000000000000018     
 -0.45000000000000018     
 -0.45000000000000012     
 -0.45000000000000012     
 -0.45000000000000018     
 -0.45000000000000012     
 -0.40000000000000019     
 -0.40000000000000024     
 -0.40000000000000013     
 -0.40000000000000013     
 -0.40000000000000013     
 -0.40000000000000013     
 -0.40000000000000013     
 -0.40000000000000013     
 -0.40000000000000013     
 -0.40000000000000013     
 -0.40000000000000013     
 -0.40000000000000019     
 -0.40000000000000013     
 -0.40000000000000013     
 -0.40000000000000013     
 -0.40000000000000013     
 -0.40000000000000013     
 -0.40000000000000013     
 -0.40000000000000013     
 -0.40000000000000013     
 -0.40000000000000013     
 -0.40000000000000013     
 -0.40000000000000019     
 -0.40000000000000013     
 -0.40000000000000013     
 -0.40000000000000013     
 -0.40000000000000019     
 -0.40000000000000019     
 -0.40000000000000019     
 -0.40000000000000019     
 -0.40000000000000019     
 -0.40000000000000019     
 -0.40000000000000013     
 -0.40000000000000019     
 -0.40000000000000013     
 -0.40000000000000013     
 -0.40000000000000019     
 -0.40000000000000024     
 -0.40000000000000019     
 -0.40000000000000019     
 -0.40000000000000019     
 -0.40000000000000019     
 -0.40000000000000019     
 -0.40000000000000024     
 -0.40000000000000019     
 -0.40000000000000013     
 -0.40000000000000013     
 -0.40000000000000019     
 -0.40000000000000019     
 -0.40000000000000019     
 -0.40000000000000013     
 -0.40000000000000013     
 -0.40000000000000013     
 -0.40000000000000013     
 -0.40000000000000019     
 -0.40000000000000019     
 -0.40000000000000013     
 -0.40000000000000013     
 -0.40000000000000019     
 -0.40000000000000019     
 -0.40000000000000013     
 -0.40000000000000013     
 -0.40000000000000013     
 -0.40000000000000013     
 -0.40000000000000013     
 -0.40000000000000013     
 -0.40000000000000019     
 -0.40000000000000013     
 -0.40000000000000013     
 -0.40000000000000019     
 -0.40000000000000019     
 -0.40000000000000013     
 -0.40000000000000013     
 -0.40000000000000013     
 -0.40000000000000013     
 -0.40000000000000013     
 -0.40000000000000013     
 -0.40000000000000019     
 -0.40000000000000013     
 -0.40000000000000013     
 -0.40000000000000019     
 -0.40000000000000019     
 -0.40000000000000013     
 -0.40000000000000013     
 -0.40000000000000013     
 -0.40000000000000013     
 -0.40000000000000013     
 -0.40000000000000013     
 -0.40000000000000019     
 -0.40000000000000013     
 -0.40000000000000013     
 -0.40000000000000019     
 -0.40000000000000019     
 -0.40000000000000013     
 -0.40000000000000013     
 -0.40000000000000013     
 -0.40000000000000013     
 -0.40000000000000019     
 -0.40000000000000019     
 -0.40000000000000019     
 -0.40000000000000013     
 -0.40000000000000013     
 -0.40000000000000013     
 -0.40000000000000024     
 -0.40000000000000019     
 -0.40000000000000013     
 -0.40000000000000013     
 -0.40000000000000013     
 -0.40000000000000019     
 -0.40000000000000013     
 -0.35000000000000020     
 -0.35000000000000020     
 -0.35000000000000014     
 -0.35000000000000014     
 -0.35000000000000014     
 -0.35000000000000014     
 -0.35000000000000014     
 -0.35000000000000014     
 -0.35000000000000014     
 -0.35000000000000014     
 -0.35000000000000014     
 -0.35000000000000020     
 -0.35000000000000009     
 -0.35000000000000009     
 -0.35000000000000009     
 -0.35000000000000009     
 -0.35000000000000009     
 -0.35000000000000009     
 -0.35000000000000009     
 -0.35000000000000009     
 -0.35000000000000009     
 -0.35000000000000009     
 -0.35000000000000020     
 -0.35000000000000009     
 -0.35000000000000009     
 -0.35000000000000009     
 -0.35000000000000020     
 -0.35000000000000020     
 -0.35000000000000020     
 -0.35000000000000020     
 -0.35000000000000020     
 -0.35000000000000020     
 -0.35000000000000009     
 -0.35000000000000020     
 -0.35000000000000009     
 -0.35000000000000009     
 -0.35000000000000020     
 -0.35000000000000020     
 -0.35000000000000020     
 -0.35000000000000020     
 -0.35000000000000020     
 -0.35000000000000020     
 -0.35000000000000020     
 -0.35000000000000020     
 -0.35000000000000020     
 -0.35000000000000009     
 -0.35000000000000009     
 -0.35000000000000020     
 -0.35000000000000020     
 -0.35000000000000020     
 -0.35000000000000014     
 -0.35000000000000014     
 -0.35000000000000014     
 -0.35000000000000014     
 -0.35000000000000020     
 -0.35000000000000020     
 -0.35000000000000009     
 -0.35000000000000009     
 -0.35000000000000020     
 -0.35000000000000020     
 -0.35000000000000014     
 -0.35000000000000014     
 -0.35000000000000014     
 -0.35000000000000014     
 -0.35000000000000014     
 -0.35000000000000014     
 -0.35000000000000020     
 -0.35000000000000009     
 -0.35000000000000009     
 -0.35000000000000020     
 -0.35000000000000020     
 -0.35000000000000014     
 -0.35000000000000014     
 -0.35000000000000014     
 -0.35000000000000009     
 -0.35000000000000009     
 -0.35000000000000014     
 -0.35000000000000020     
 -0.35000000000000009     
 -0.35000000000000009     
 -0.35000000000000020     
 -0.35000000000000020     
 -0.35000000000000014     
 -0.35000000000000014     
 -0.35000000000000009     
 -0.35000000000000009     
 -0.35000000000000009     
 -0.35000000000000009     
 -0.35000000000000020     
 -0.35000000000000009     
 -0.35000000000000009     
 -0.35000000000000020     
 -0.35000000000000020     
 -0.35000000000000014     
 -0.35000000000000014     
 -0.35000000000000009     
 -0.35000000000000009     
 -0.35000000000000020     
 -0.35000000000000020     
 -0.35000000000000020     
 -0.35000000000000009     
 -0.35000000000000009     
 -0.35000000000000009     
 -0.35000000000000020     
 -0.35000000000000020     
 -0.35000000000000014     
 -0.35000000000000014     
 -0.35000000000000009     
 -0.35000000000000020     
 -0.35000000000000009     
 -0.30000000000000016     
 -0.30000000000000016     
 -0.30000000000000010     
 -0.30000000000000010     
 -0.30000000000000010     
 -0.30000000000000010     
 -0.30000000000000010     
 -0.30000000000000010     
 -0.30000000000000010     
 -0.30000000000000010     
 -0.30000000000000010     
 -0.30000000000000016     
 -0.30000000000000004     
 -0.30000000000000004     
 -0.30000000000000004     
 -0.30000000000000004     
 -0.30000000000000004     
 -0.30000000000000004     
 -0.30000000000000004     
 -0.30000000000000004     
 -0.30000000000000004     
 -0.30000000000000004     
 -0.30000000000000016     
 -0.30000000000000004     
 -0.30000000000000004     
 -0.30000000000000004     
 -0.30000000000000016     
 -0.30000000000000016     
 -0.30000000000000016     
 -0.30000000000000016     
 -0.30000000000000016     
 -0.30000000000000016     
 -0.30000000000000004     
 -0.30000000000000016     
 -0.30000000000000004     
 -0.30000000000000004     
 -0.30000000000000016     
 -0.30000000000000016     
 -0.30000000000000016     
 -0.30000000000000016     
 -0.30000000000000016     
 -0.30000000000000016     
 -0.30000000000000016     
 -0.30000000000000016     
 -0.30000000000000016     
 -0.30000000000000004     
 -0.30000000000000004     
 -0.30000000000000016     
 -0.30000000000000016     
 -0.30000000000000016     
 -0.30000000000000010     
 -0.30000000000000010     
 -0.30000000000000010     
 -0.30000000000000010     
 -0.30000000000000016     
 -0.30000000000000016     
 -0.30000000000000004     
 -0.30000000000000004     
 -0.30000000000000016     
 -0.30000000000000016     
 -0.30000000000000010     
 -0.30000000000000010     
 -0.30000000000000010     
 -0.30000000000000010     
 -0.30000000000000010     
 -0.30000000000000010     
 -0.30000000000000016     
 -0.30000000000000004     
 -0.30000000000000004     
 -0.30000000000000016     
 -0.30000000000000016     
 -0.30000000000000010     
 -0.30000000000000010     
 -0.30000000000000010     
 -0.30000000000000004     
 -0.30000000000000004     
 -0.30000000000000010     
 -0.30000000000000016     
 -0.30000000000000004     
 -0.30000000000000004     
 -0.30000000000000016     
 -0.30000000000000016     
 -0.30000000000000010     
 -0.30000000000000010     
 -0.30000000000000004     
 -0.30000000000000004     
 -0.30000000000000004     
 -0.30000000000000004     
 -0.30000000000000016     
 -0.30000000000000004     
 -0.30000000000000004     
 -0.30000000000000016     
 -0.30000000000000016     
 -0.30000000000000010     
 -0.30000000000000010     
 -0.30000000000000004     
 -0.30000000000000004     
 -0.30000000000000016     
 -0.30000000000000016     
 -0.30000000000000016     
 -0.30000000000000004     
 -0.30000000000000004     
 -0.30000000000000004     
 -0.30000000000000016     
 -0.30000000000000016     
 -0.30000000000000010     
 -0.30000000000000010     
 -0.30000000000000004     
 -0.30000000000000016     
 -0.30000000000000004     
 -0.25000000000000011     
 -0.25000000000000017     
 -0.25000000000000011     
 -0.25000000000000011     
 -0.25000000000000011     
 -0.25000000000000011     
 -0.25000000000000011     
 -0.25000000000000011     
 -0.25000000000000011     
 -0.25000000000000011     
 -0.25000000000000011     
 -0.25000000000000011     
 -0.25000000000000006     
 -0.25000000000000006     
 -0.25000000000000006     
 -0.25000000000000006     
 -0.25000000000000006     
 -0.25000000000000006     
 -0.25000000000000006     
 -0.25000000000000006     
 -0.25000000000000006     
 -0.25000000000000006     
 -0.25000000000000011     
 -0.25000000000000006     
 -0.25000000000000006     
 -0.25000000000000006     
 -0.25000000000000017     
 -0.25000000000000017     
 -0.25000000000000017     
 -0.25000000000000017     
 -0.25000000000000017     
 -0.25000000000000017     
 -0.25000000000000006     
 -0.25000000000000011     
 -0.25000000000000006     
 -0.25000000000000006     
 -0.25000000000000017     
 -0.25000000000000017     
 -0.25000000000000011     
 -0.25000000000000011     
 -0.25000000000000011     
 -0.25000000000000011     
 -0.25000000000000011     
 -0.25000000000000017     
 -0.25000000000000011     
 -0.25000000000000006     
 -0.25000000000000006     
 -0.25000000000000017     
 -0.25000000000000011     
 -0.25000000000000011     
 -0.25000000000000011     
 -0.25000000000000011     
 -0.25000000000000011     
 -0.25000000000000011     
 -0.25000000000000011     
 -0.25000000000000011     
 -0.25000000000000006     
 -0.25000000000000006     
 -0.25000000000000017     
 -0.25000000000000011     
 -0.25000000000000011     
 -0.25000000000000011     
 -0.25000000000000011     
 -0.25000000000000011     
 -0.25000000000000011     
 -0.25000000000000011     
 -0.25000000000000011     
 -0.25000000000000006     
 -0.25000000000000006     
 -0.25000000000000017     
 -0.25000000000000011     
 -0.25000000000000011     
 -0.25000000000000011     
 -0.25000000000000011     
 -0.25000000000000006     
 -0.25000000000000006     
 -0.25000000000000011     
 -0.25000000000000011     