# vtk DataFile Version 2.0
3D Unstructured Grid of Linear Triangles
ASCII
DATASET UNSTRUCTURED_GRID
FIELD FieldData  1
TIME 1 1 double
           0.10000
POINTS     1320 float
      0.00000000E+00  2.70000000E-02  1.00005200E-03
      5.00000000E-02  2.70000000E-02  1.00004767E-03
      1.00000000E-01  2.70000000E-02  1.00004550E-03
      1.50000000E-01  2.70000000E-02  1.00004550E-03
      2.00000000E-01  2.70000000E-02  1.00004550E-03
      2.50000000E-01  2.70000000E-02  1.00004550E-03
      3.00000000E-01  2.70000000E-02  1.00004550E-03
      3.50000000E-01  2.70000000E-02  1.00004550E-03
      4.00000000E-01  2.70000000E-02  1.00004550E-03
      4.50000000E-01  2.70000000E-02  1.00004550E-03
      5.00000000E-01  2.70000000E-02  1.00004550E-03
      0.00000000E+00  2.40000000E-02  1.00005200E-03
      5.00000000E-02  2.40000000E-02  1.00004875E-03
      1.00000000E-01  2.40000000E-02  1.00004333E-03
      1.50000000E-01  2.40000000E-02  1.00004225E-03
      2.00000000E-01  2.40000000E-02  1.00004225E-03
      2.50000000E-01  2.40000000E-02  1.00004225E-03
      3.00000000E-01  2.40000000E-02  1.00004225E-03
      3.50000000E-01  2.40000000E-02  1.00004225E-03
      4.00000000E-01  2.40000000E-02  1.00004225E-03
      4.50000000E-01  2.40000000E-02  1.00004225E-03
      5.00000000E-01  2.40000000E-02  1.00004333E-03
      0.00000000E+00  2.10000000E-02  1.00005200E-03
      5.00000000E-02  2.10000000E-02  1.00004875E-03
      1.00000000E-01  2.10000000E-02  1.00004225E-03
      1.50000000E-01  2.10000000E-02  1.00003683E-03
      2.00000000E-01  2.10000000E-02  1.00003575E-03
      2.50000000E-01  2.10000000E-02  1.00003575E-03
      3.00000000E-01  2.10000000E-02  1.00003575E-03
      3.50000000E-01  2.10000000E-02  1.00003575E-03
      4.00000000E-01  2.10000000E-02  1.00003575E-03
      4.50000000E-01  2.10000000E-02  1.00003575E-03
      5.00000000E-01  2.10000000E-02  1.00003683E-03
      0.00000000E+00  1.80000000E-02  1.00005200E-03
      5.00000000E-02  1.80000000E-02  1.00004875E-03
      1.00000000E-01  1.80000000E-02  1.00004225E-03
      1.50000000E-01  1.80000000E-02  1.00003575E-03
      2.00000000E-01  1.80000000E-02  1.00003033E-03
      2.50000000E-01  1.80000000E-02  1.00002925E-03
      3.00000000E-01  1.80000000E-02  1.00002925E-03
      3.50000000E-01  1.80000000E-02  1.00002925E-03
      4.00000000E-01  1.80000000E-02  1.00002925E-03
      4.50000000E-01  1.80000000E-02  1.00002925E-03
      5.00000000E-01  1.80000000E-02  1.00003033E-03
      0.00000000E+00  1.50000000E-02  1.00005200E-03
      5.00000000E-02  1.50000000E-02  1.00004875E-03
      1.00000000E-01  1.50000000E-02  1.00004225E-03
      1.50000000E-01  1.50000000E-02  1.00003575E-03
      2.00000000E-01  1.50000000E-02  1.00002925E-03
      2.50000000E-01  1.50000000E-02  1.00002383E-03
      3.00000000E-01  1.50000000E-02  1.00002275E-03
      3.50000000E-01  1.50000000E-02  1.00002275E-03
      4.00000000E-01  1.50000000E-02  1.00002275E-03
      4.50000000E-01  1.50000000E-02  1.00002275E-03
      5.00000000E-01  1.50000000E-02  1.00002383E-03
      0.00000000E+00  1.20000000E-02  1.00005200E-03
      5.00000000E-02  1.20000000E-02  1.00004875E-03
      1.00000000E-01  1.20000000E-02  1.00004225E-03
      1.50000000E-01  1.20000000E-02  1.00003575E-03
      2.00000000E-01  1.20000000E-02  1.00002925E-03
      2.50000000E-01  1.20000000E-02  1.00002275E-03
      3.00000000E-01  1.20000000E-02  1.00001733E-03
      3.50000000E-01  1.20000000E-02  1.00001625E-03
      4.00000000E-01  1.20000000E-02  1.00001625E-03
      4.50000000E-01  1.20000000E-02  1.00001625E-03
      5.00000000E-01  1.20000000E-02  1.00001733E-03
      0.00000000E+00  9.00000000E-03  1.00005200E-03
      5.00000000E-02  9.00000000E-03  1.00004875E-03
      1.00000000E-01  9.00000000E-03  1.00004225E-03
      1.50000000E-01  9.00000000E-03  1.00003575E-03
      2.00000000E-01  9.00000000E-03  1.00002925E-03
      2.50000000E-01  9.00000000E-03  1.00002275E-03
      3.00000000E-01  9.00000000E-03  1.00001625E-03
      3.50000000E-01  9.00000000E-03  1.00001083E-03
      4.00000000E-01  9.00000000E-03  1.00000975E-03
      4.50000000E-01  9.00000000E-03  1.00000975E-03
      5.00000000E-01  9.00000000E-03  1.00001083E-03
      0.00000000E+00  6.00000000E-03  1.00005200E-03
      5.00000000E-02  6.00000000E-03  1.00004875E-03
      1.00000000E-01  6.00000000E-03  1.00004225E-03
      1.50000000E-01  6.00000000E-03  1.00003575E-03
      2.00000000E-01  6.00000000E-03  1.00002925E-03
      2.50000000E-01  6.00000000E-03  1.00002275E-03
      3.00000000E-01  6.00000000E-03  1.00001625E-03
      3.50000000E-01  6.00000000E-03  1.00000975E-03
      4.00000000E-01  6.00000000E-03  1.00000433E-03
      4.50000000E-01  6.00000000E-03  1.00000325E-03
      5.00000000E-01  6.00000000E-03  1.00000433E-03
      0.00000000E+00  3.00000000E-03  1.00005200E-03
      5.00000000E-02  3.00000000E-03  1.00004875E-03
      1.00000000E-01  3.00000000E-03  1.00004225E-03
      1.50000000E-01  3.00000000E-03  1.00003575E-03
      2.00000000E-01  3.00000000E-03  1.00002925E-03
      2.50000000E-01  3.00000000E-03  1.00002275E-03
      3.00000000E-01  3.00000000E-03  1.00001625E-03
      3.50000000E-01  3.00000000E-03  1.00000975E-03
      4.00000000E-01  3.00000000E-03  1.00000325E-03
      4.50000000E-01  3.00000000E-03  9.96666667E-04
      5.00000000E-01  3.00000000E-03  9.96666667E-04
      0.00000000E+00  0.00000000E+00  1.00005200E-03
      5.00000000E-02  0.00000000E+00  1.00004983E-03
      1.00000000E-01  0.00000000E+00  1.00004333E-03
      1.50000000E-01  0.00000000E+00  1.00003683E-03
      2.00000000E-01  0.00000000E+00  1.00003033E-03
      2.50000000E-01  0.00000000E+00  1.00002383E-03
      3.00000000E-01  0.00000000E+00  1.00001733E-03
      3.50000000E-01  0.00000000E+00  1.00001083E-03
      4.00000000E-01  0.00000000E+00  1.00000433E-03
      4.50000000E-01  0.00000000E+00  9.96666667E-04
      5.00000000E-01  0.00000000E+00  9.90000000E-04
      0.00000000E+00  2.70000000E-02 -4.89999480E-02
      5.00000000E-02  2.70000000E-02 -4.89999523E-02
      1.00000000E-01  2.70000000E-02 -4.89999545E-02
      1.50000000E-01  2.70000000E-02 -4.89999545E-02
      2.00000000E-01  2.70000000E-02 -4.89999545E-02
      2.50000000E-01  2.70000000E-02 -4.89999545E-02
      3.00000000E-01  2.70000000E-02 -4.89999545E-02
      3.50000000E-01  2.70000000E-02 -4.89999545E-02
      4.00000000E-01  2.70000000E-02 -4.89999545E-02
      4.50000000E-01  2.70000000E-02 -4.89999545E-02
      5.00000000E-01  2.70000000E-02 -4.89999545E-02
      0.00000000E+00  2.40000000E-02 -4.89999480E-02
      5.00000000E-02  2.40000000E-02 -4.89999512E-02
      1.00000000E-01  2.40000000E-02 -4.89999567E-02
      1.50000000E-01  2.40000000E-02 -4.89999578E-02
      2.00000000E-01  2.40000000E-02 -4.89999578E-02
      2.50000000E-01  2.40000000E-02 -4.89999578E-02
      3.00000000E-01  2.40000000E-02 -4.89999578E-02
      3.50000000E-01  2.40000000E-02 -4.89999578E-02
      4.00000000E-01  2.40000000E-02 -4.89999578E-02
      4.50000000E-01  2.40000000E-02 -4.89999578E-02
      5.00000000E-01  2.40000000E-02 -4.89999567E-02
      0.00000000E+00  2.10000000E-02 -4.89999480E-02
      5.00000000E-02  2.10000000E-02 -4.89999512E-02
      1.00000000E-01  2.10000000E-02 -4.89999578E-02
      1.50000000E-01  2.10000000E-02 -4.89999632E-02
      2.00000000E-01  2.10000000E-02 -4.89999642E-02
      2.50000000E-01  2.10000000E-02 -4.89999642E-02
      3.00000000E-01  2.10000000E-02 -4.89999642E-02
      3.50000000E-01  2.10000000E-02 -4.89999642E-02
      4.00000000E-01  2.10000000E-02 -4.89999642E-02
      4.50000000E-01  2.10000000E-02 -4.89999642E-02
      5.00000000E-01  2.10000000E-02 -4.89999632E-02
      0.00000000E+00  1.80000000E-02 -4.89999480E-02
      5.00000000E-02  1.80000000E-02 -4.89999512E-02
      1.00000000E-01  1.80000000E-02 -4.89999578E-02
      1.50000000E-01  1.80000000E-02 -4.89999642E-02
      2.00000000E-01  1.80000000E-02 -4.89999697E-02
      2.50000000E-01  1.80000000E-02 -4.89999708E-02
      3.00000000E-01  1.80000000E-02 -4.89999708E-02
      3.50000000E-01  1.80000000E-02 -4.89999708E-02
      4.00000000E-01  1.80000000E-02 -4.89999708E-02
      4.50000000E-01  1.80000000E-02 -4.89999708E-02
      5.00000000E-01  1.80000000E-02 -4.89999697E-02
      0.00000000E+00  1.50000000E-02 -4.89999480E-02
      5.00000000E-02  1.50000000E-02 -4.89999512E-02
      1.00000000E-01  1.50000000E-02 -4.89999578E-02
      1.50000000E-01  1.50000000E-02 -4.89999642E-02
      2.00000000E-01  1.50000000E-02 -4.89999708E-02
      2.50000000E-01  1.50000000E-02 -4.89999762E-02
      3.00000000E-01  1.50000000E-02 -4.89999772E-02
      3.50000000E-01  1.50000000E-02 -4.89999772E-02
      4.00000000E-01  1.50000000E-02 -4.89999772E-02
      4.50000000E-01  1.50000000E-02 -4.89999772E-02
      5.00000000E-01  1.50000000E-02 -4.89999762E-02
      0.00000000E+00  1.20000000E-02 -4.89999480E-02
      5.00000000E-02  1.20000000E-02 -4.89999512E-02
      1.00000000E-01  1.20000000E-02 -4.89999578E-02
      1.50000000E-01  1.20000000E-02 -4.89999642E-02
      2.00000000E-01  1.20000000E-02 -4.89999708E-02
      2.50000000E-01  1.20000000E-02 -4.89999772E-02
      3.00000000E-01  1.20000000E-02 -4.89999827E-02
      3.50000000E-01  1.20000000E-02 -4.89999838E-02
      4.00000000E-01  1.20000000E-02 -4.89999838E-02
      4.50000000E-01  1.20000000E-02 -4.89999838E-02
      5.00000000E-01  1.20000000E-02 -4.89999827E-02
      0.00000000E+00  9.00000000E-03 -4.89999480E-02
      5.00000000E-02  9.00000000E-03 -4.89999512E-02
      1.00000000E-01  9.00000000E-03 -4.89999578E-02
      1.50000000E-01  9.00000000E-03 -4.89999642E-02
      2.00000000E-01  9.00000000E-03 -4.89999708E-02
      2.50000000E-01  9.00000000E-03 -4.89999772E-02
      3.00000000E-01  9.00000000E-03 -4.89999838E-02
      3.50000000E-01  9.00000000E-03 -4.89999892E-02
      4.00000000E-01  9.00000000E-03 -4.89999903E-02
[...]
POINT_DATA     1320
SCALARS pressure float
LOOKUP_TABLE default
 -0.55000000000000948     
 -0.54999999999899896     
 -0.55000000000199578     
 -0.55000000000299820     
 -0.55000000000299853     
 -0.55000000000299853     
 -0.55000000000299853     
 -0.55000000000299853     
 -0.55000000000299853     
 -0.55000000000299853     
 -0.55000000000269977     
 -0.55000000000001092     
 -0.55000000000033544     
 -0.54999999999966276     
 -0.55000000000066573     
 -0.55000000000100047     
 -0.55000000000100058     
 -0.55000000000100058     
 -0.55000000000100058     
 -0.55000000000100058     
 -0.55000000000099936     
 -0.55000000000135263     
 -0.55000000000001092     
 -0.55000000000000382     
 -0.54999999999966565     
 -0.54999999999866289     
 -0.54999999999966565     
 -0.55000000000000038     
 -0.55000000000000049     
 -0.55000000000000049     
 -0.55000000000000049     
 -0.54999999999999927     
 -0.55000000000000238     
 -0.55000000000001092     
 -0.55000000000000371     
 -0.55000000000000004     
 -0.54999999999966542     
 -0.54999999999866256     
 -0.54999999999966542     
 -0.55000000000000004     
 -0.55000000000000016     
 -0.55000000000000016     
 -0.54999999999999893     
 -0.55000000000000193     
 -0.55000000000001092     
 -0.55000000000000371     
 -0.55000000000000016     
 -0.55000000000000004     
 -0.54999999999966542     
 -0.54999999999866256     
 -0.54999999999966542     
 -0.55000000000000004     
 -0.55000000000000016     
 -0.54999999999999893     
 -0.55000000000000193     
 -0.55000000000001092     
 -0.55000000000000371     
 -0.55000000000000016     
 -0.55000000000000016     
 -0.55000000000000004     
 -0.54999999999966542     
 -0.54999999999866256     
 -0.54999999999966542     
 -0.55000000000000004     
 -0.54999999999999905     
 -0.55000000000000204     
 -0.55000000000001092     
 -0.55000000000000371     
 -0.55000000000000016     
 -0.55000000000000016     
 -0.55000000000000016     
 -0.55000000000000004     
 -0.54999999999966542     
 -0.54999999999866256     
 -0.54999999999966542     
 -0.55000000000031379     
 -0.55000000000032523     
 -0.55000000000001092     
 -0.55000000000000371     
 -0.55000000000000004     
 -0.55000000000000004     
 -0.55000000000000004     
 -0.55000000000000004     
 -0.54999999999999993     
 -0.54999999999966531     
 -0.54999999999864235     
 -0.55000000102369773     
 -0.55000000103793190     
 -0.55000000000001092     
 -0.54999999999967075     
 -0.54999999999966720     
 -0.54999999999966720     
 -0.54999999999966720     
 -0.54999999999966720     
 -0.54999999999966720     
 -0.54999999999966709     
 -0.55000000000302007     
 -0.54999999897040164     
 -0.55000000103620161     
 -0.55000000000000993     
 -0.55000000000050464     
 -0.55000000000049976     
 -0.55000000000049976     
 -0.55000000000049976     
 -0.55000000000049976     
 -0.55000000000049976     
 -0.55000000000049987     
 -0.55000000000423732     
 -0.55000000000325489     
 -0.54999999722083470     
 -0.50000000000000755     
 -0.49999999999928113     
 -0.50000000000143119     
 -0.50000000000215128     
 -0.50000000000215150     
 -0.50000000000215150     
 -0.50000000000215150     
 -0.50000000000215150     
 -0.50000000000215150     
 -0.50000000000215150     
 -0.50000000000226452     
 -0.50000000000000799     
 -0.50000000000036093     
 -0.49999999999963685     
 -0.50000000000071598     
 -0.50000000000107603     
 -0.50000000000107614     
 -0.50000000000107614     
 -0.50000000000107614     
 -0.50000000000107614     
 -0.50000000000107492     
 -0.50000000000151257     
 -0.50000000000000799     
 -0.50000000000000411     
 -0.49999999999964023     
 -0.49999999999856126     
 -0.49999999999964034     
 -0.50000000000000044     
 -0.50000000000000056     
 -0.50000000000000056     
 -0.50000000000000056     
 -0.49999999999999928     
 -0.50000000000000322     
 -0.50000000000000799     
 -0.50000000000000400     
 -0.50000000000000000     
 -0.49999999999964001     
 -0.49999999999856104     
 -0.49999999999964001     
 -0.50000000000000011     
 -0.50000000000000022     
 -0.50000000000000022     
 -0.49999999999999895     
 -0.50000000000000278     
 -0.50000000000000799     
 -0.50000000000000400     
 -0.50000000000000011     
 -0.50000000000000011     
 -0.49999999999964001     
 -0.49999999999856104     
 -0.49999999999963990     
 -0.50000000000000000     
 -0.50000000000000011     
 -0.49999999999999883     
 -0.50000000000000278     
 -0.50000000000000799     
 -0.50000000000000400     
 -0.50000000000000011     
 -0.50000000000000022     
 -0.50000000000000011     
 -0.49999999999963990     
 -0.49999999999856093     
 -0.49999999999963990     
 -0.50000000000000000     
 -0.49999999999999895     
 -0.50000000000000289     
 -0.50000000000000799     
 -0.50000000000000400     
 -0.50000000000000011     
 -0.50000000000000022     
 -0.50000000000000022     
 -0.50000000000000000     
 -0.49999999999963990     
 -0.49999999999856093     
 -0.49999999999963990     
 -0.50000000000036326     
 -0.50000000000040690     
 -0.50000000000000799     
 -0.50000000000000389     
 -0.50000000000000000     
 -0.50000000000000011     
 -0.50000000000000011     
 -0.50000000000000000     
 -0.49999999999999989     
 -0.49999999999963979     
 -0.49999999999855993     
 -0.50000000110145448     
 -0.50000000116049936     
 -0.50000000000000799     
 -0.49999999999964578     
 -0.49999999999964190     
 -0.49999999999964201     
 -0.49999999999964201     
 -0.49999999999964190     
 -0.49999999999964190     
 -0.49999999999964179     
 -0.50000000000324962     
 -0.49999999889238728     
 -0.50000000115848020     
 -0.50000000000000833     
 -0.50000000000072220     
 -0.50000000000071676     
 -0.50000000000071676     
 -0.50000000000071687     
 -0.50000000000071687     
 -0.50000000000071676     
 -0.50000000000071676     
 -0.50000000000489564     
 -0.50000000000343647     
 -0.49999999650484900     
 -0.45000000000000895     
 -0.44999999999913715     
 -0.45000000000171780     
 -0.45000000000258217     
 -0.45000000000258250     
 -0.45000000000258250     
 -0.45000000000258250     
 -0.45000000000258250     
 -0.45000000000258250     
 -0.45000000000258250     
 -0.45000000000273344     
 -0.45000000000000950     
 -0.45000000000043311     
 -0.44999999999956425     
 -0.45000000000085927     
 -0.45000000000129159     
 -0.45000000000129176     
 -0.45000000000129176     
 -0.45000000000129176     
 -0.45000000000129176     
 -0.45000000000129020     
 -0.45000000000182577     
 -0.45000000000000950     
 -0.45000000000000495     
 -0.44999999999956813     
 -0.44999999999827317     
 -0.44999999999956825     
 -0.45000000000000051     
 -0.45000000000000068     
 -0.45000000000000068     
 -0.45000000000000068     
 -0.44999999999999912     
 -0.45000000000000395     
 -0.45000000000000950     
 -0.45000000000000479     
 -0.44999999999999990     
 -0.44999999999956775     
 -0.44999999999827278     
 -0.44999999999956775     
 -0.45000000000000001     
 -0.45000000000000018     
 -0.45000000000000018     
 -0.44999999999999862     
 -0.45000000000000329     
 -0.45000000000000950     
 -0.45000000000000479     
 -0.45000000000000007     
 -0.45000000000000001     
 -0.44999999999956775     
 -0.44999999999827278     
 -0.44999999999956775     
 -0.45000000000000001     
 -0.45000000000000018     
 -0.44999999999999862     
 -0.45000000000000329     
 -0.45000000000000950     
 -0.45000000000000479     
 -0.45000000000000007     
 -0.45000000000000018     
 -0.45000000000000001     
 -0.44999999999956775     
 -0.44999999999827278     
 -0.44999999999956769     
 -0.44999999999999996     
 -0.44999999999999879     
 -0.45000000000000351     
 -0.45000000000000950     
 -0.45000000000000479     
 -0.45000000000000007     
 -0.45000000000000018     
 -0.45000000000000018     
 -0.45000000000000001     
 -0.44999999999956769     
 -0.44999999999827273     
 -0.44999999999956769     
 -0.45000000000052354     
 -0.45000000000059198     
 -0.45000000000000950     
 -0.45000000000000462     
 -0.44999999999999990     
 -0.45000000000000001     
 -0.45000000000000001     
 -0.45000000000000001     
 -0.44999999999999979     
 -0.44999999999956752     
 -0.44999999999827173     
 -0.45000000132191464     
 -0.45000000140076490     
 -0.45000000000000950     
 -0.44999999999957491     
 -0.44999999999957019     
 -0.44999999999957030     
 -0.44999999999957030     
 -0.44999999999957030     
 -0.44999999999957024     
 -0.44999999999957008     
 -0.45000000000390022     
 -0.44999999867069035     
 -0.45000000139801749     
 -0.45000000000001000     
 -0.45000000000086676     
 -0.45000000000086021     
 -0.45000000000086016     
 -0.45000000000086027     
 -0.45000000000086027     
 -0.45000000000086027     
 -0.45000000000086021     
 -0.45000000000590451     
 -0.45000000000397539     
 -0.44999999578151884     
 -0.40000000000001085     
 -0.39999999999894065     
 -0.40000000000210917     
 -0.40000000000317082     
 -0.40000000000317132     
 -0.40000000000317132     
 -0.40000000000317132     
 -0.40000000000317132     
 -0.40000000000317132     
 -0.40000000000317132     
 -0.40000000000338015     
 -0.40000000000001162     
 -0.40000000000053171     
 -0.39999999999946501     
 -0.40000000000105529     
 -0.40000000000158625     
 -0.40000000000158653     
 -0.40000000000158653     
 -0.40000000000158653     
 -0.40000000000158653     
 -0.40000000000158459     
 -0.40000000000225788     
 -0.40000000000001162     
 -0.40000000000000607     
 -0.39999999999946967     
 -0.39999999999787966     
 -0.39999999999946972     
 -0.40000000000000069     
 -0.40000000000000097     
 -0.40000000000000097     
 -0.40000000000000097     
 -0.39999999999999908     
 -0.40000000000000513     
 -0.40000000000001162     
 -0.40000000000000585     
 -0.39999999999999986     
 -0.39999999999946900     
 -0.39999999999787900     
 -0.39999999999946895     
 -0.39999999999999991     
 -0.40000000000000019     
 -0.40000000000000019     
 -0.39999999999999830     
 -0.40000000000000407     
 -0.40000000000001162     
 -0.40000000000000585     
 -0.40000000000000013     
 -0.39999999999999991     
 -0.39999999999946900     
 -0.39999999999787894     
 -0.39999999999946889     
 -0.39999999999999986     
 -0.40000000000000013     
 -0.39999999999999825     
 -0.40000000000000402     
 -0.40000000000001162     
 -0.40000000000000585     
 -0.40000000000000013     
 -0.40000000000000019     
 -0.39999999999999991     
 -0.39999999999946895     
 -0.39999999999787889     
 -0.39999999999946889     
 -0.39999999999999986     
 -0.39999999999999863     
 -0.40000000000000441     
 -0.40000000000001162     
 -0.40000000000000585     
 -0.40000000000000013     
 -0.40000000000000019     
 -0.40000000000000019     
 -0.39999999999999986     
 -0.39999999999946895     
 -0.39999999999787889     
 -0.39999999999946895     
 -0.40000000000078967     
 -0.40000000000090424     
 -0.40000000000001162     
 -0.40000000000000557     
 -0.39999999999999986     
 -0.39999999999999991     
 -0.39999999999999991     
 -0.39999999999999986     
 -0.39999999999999963     
 -0.39999999999946867     
 -0.39999999999787811     
 -0.40000000162305860     
 -0.40000000173221151     
 -0.40000000000001162     
 -0.39999999999947811     
 -0.39999999999947239     
 -0.39999999999947244     
 -0.39999999999947244     
 -0.39999999999947239     
 -0.39999999999947239     
 -0.39999999999947211     
 -0.40000000000478914     
 -0.39999999836785527     
 -0.40000000172828593     
 -0.40000000000001235     
 -0.40000000000106428     
 -0.40000000000105618     
 -0.40000000000105618     
 -0.40000000000105629     
 -0.40000000000105623     
 -0.40000000000105618     
 -0.40000000000105618     
 -0.40000000000729447     
 -0.40000000000462743     
 -0.39999999478385106     
 -0.35000000000001358     
 -0.34999999999866033     
 -0.35000000000266740     
 -0.35000000000401060     
 -0.35000000000401144     
 -0.35000000000401144     
 -0.35000000000401144     
 -0.35000000000401144     
 -0.35000000000401144     
 -0.35000000000401144     
 -0.35000000000431403     
 -0.35000000000001463     
 -0.35000000000067222     
 -0.34999999999932357     
 -0.35000000000133480     
 -0.35000000000200654     
 -0.35000000000200698     
 -0.35000000000200698     
 -0.35000000000200698     
 -0.35000000000200698     
 -0.35000000000200460     
 -0.35000000000288178     
 -0.35000000000001463     
 -0.35000000000000775     
 -0.34999999999932913     
 -0.34999999999731835     
 -0.34999999999932924     
 -0.35000000000000103     
 -0.35000000000000142     
 -0.35000000000000142     
 -0.35000000000000142     
 -0.34999999999999903     
 -0.35000000000000681     
 -0.35000000000001463     
 -0.35000000000000731     
 -0.34999999999999970     
 -0.34999999999932802     
 -0.34999999999731718     
 -0.34999999999932802     
 -0.34999999999999981     
 -0.35000000000000020     
 -0.35000000000000020     
 -0.34999999999999781     
 -0.35000000000000503     
 -0.35000000000001463     
 -0.35000000000000731     
 -0.35000000000000009     
 -0.34999999999999981     
 -0.34999999999932802     
 -0.34999999999731718     
 -0.34999999999932796     
 -0.34999999999999976     
 -0.35000000000000014     
 -0.34999999999999776     
 -0.35000000000000503     
 -0.35000000000001463     
 -0.35000000000000731     
 -0.35000000000000009     
 -0.35000000000000020     
 -0.34999999999999981     
 -0.34999999999932796     
 -0.34999999999731712     
 -0.34999999999932796     
 -0.34999999999999976     
 -0.34999999999999853     
 -0.35000000000000592     
 -0.35000000000001463     
 -0.35000000000000731     
 -0.35000000000000009     
 -0.35000000000000020     
 -0.35000000000000020     
 -0.34999999999999976     
 -0.34999999999932796     
 -0.34999999999731712     
 -0.34999999999932790     
 -0.35000000000126352     
 -0.35000000000147119     
 -0.35000000000001463     
 -0.35000000000000692     
 -0.34999999999999970     
 -0.34999999999999981     
 -0.34999999999999981     
 -0.34999999999999976     
 -0.34999999999999931     
 -0.34999999999932746     
 -0.34999999999731690     
 -0.35000000205249965     
 -0.35000000221078020     
 -0.35000000000001463     
 -0.34999999999934001     
 -0.34999999999933279     
 -0.34999999999933290     
 -0.34999999999933290     
 -0.34999999999933284     
 -0.34999999999933284     
 -0.34999999999933235     
 -0.35000000000605691     
 -0.34999999793599984     
 -0.35000000220479949     
 -0.35000000000001574     
 -0.35000000000134590     
 -0.35000000000133552     
 -0.35000000000133552     
 -0.35000000000133563     
 -0.35000000000133563     
 -0.35000000000133558     
 -0.35000000000133563     
 -0.35000000000929810     
 -0.35000000000538706     
 -0.34999999334368065     
 -0.30000000000001747     
 -0.29999999999823690     
 -0.30000000000351074     
 -0.30000000000527977     
 -0.30000000000528121     
 -0.30000000000528121     
 -0.30000000000528121     
 -0.30000000000528121     
 -0.30000000000528121     
 -0.30000000000528121     
 -0.30000000000574756     
 -0.30000000000001920     
 -0.30000000000088439     
 -0.29999999999911003     
 -0.30000000000175725     
 -0.30000000000264204     
 -0.30000000000264276     
 -0.30000000000264276     
 -0.30000000000264276     
 -0.30000000000264276     
 -0.30000000000263960     
 -0.30000000000383970     
 -0.30000000000001920     
 -0.30000000000001026     
 -0.29999999999911670     
 -0.29999999999647020     
 -0.29999999999911681     
 -0.30000000000000160     
 -0.30000000000000232     
 -0.30000000000000232     
 -0.30000000000000232     
 -0.29999999999999916     
 -0.30000000000000976     
 -0.30000000000001920     
 -0.30000000000000954     
 -0.29999999999999932     
 -0.29999999999911464     
 -0.29999999999646820     
 -0.29999999999911464     
 -0.29999999999999943     
 -0.30000000000000016     
 -0.30000000000000016     
 -0.29999999999999699     
 -0.30000000000000648     
 -0.30000000000001920     
 -0.30000000000000954     
 -0.30000000000000004     
 -0.29999999999999943     
 -0.29999999999911464     
 -0.29999999999646820     
 -0.29999999999911459     
 -0.29999999999999938     
 -0.30000000000000010     
 -0.29999999999999694     
 -0.30000000000000648     
 -0.30000000000001920     
 -0.30000000000000954     
 -0.30000000000000004     
 -0.30000000000000016     
 -0.29999999999999943     
 -0.29999999999911459     
 -0.29999999999646815     
 -0.29999999999911459     
 -0.29999999999999938     
 -0.29999999999999871     
 -0.30000000000000876     
 -0.30000000000001920     
 -0.30000000000000954     
 -0.30000000000000004     
 -0.30000000000000016     
 -0.30000000000000016     
 -0.29999999999999938     
 -0.29999999999911459     
 -0.29999999999646815     
 -0.29999999999911453     
 -0.30000000000218974     
 -0.30000000000260857     
 -0.30000000000001920     
 -0.30000000000000887     
 -0.29999999999999932     
 -0.29999999999999943     
 -0.29999999999999943     
 -0.29999999999999938     
 -0.29999999999999866     
 -0.29999999999911381     
 -0.29999999999646981     
 -0.30000000270116589     
 -0.30000000294546403     
 -0.30000000000001920     
 -0.29999999999913152     
 -0.29999999999912202     
 -0.29999999999912214     
 -0.29999999999912214     
 -0.29999999999912208     
 -0.29999999999912208     
 -0.29999999999912130     
 -0.30000000000797244     
 -0.29999999728368104     
 -0.30000000293551615     
 -0.30000000000002086     
 -0.30000000000177135     
 -0.30000000000175758     
 -0.30000000000175758     
 -0.30000000000175769     
 -0.30000000000175769     
 -0.30000000000175764     
 -0.30000000000175764     
 -0.30000000001236771     
 -0.30000000000614996     
 -0.29999999113356091     
 -0.25000000000002381     
 -0.24999999999754330     
 -0.25000000000489303     
 -0.25000000000736106     
 -0.25000000000736389     
 -0.25000000000736389     
 -0.25000000000736389     
 -0.25000000000736389     
 -0.25000000000736389     
 -0.25000000000736383     
 -0.25000000000814870     
 -0.25000000000002665     
 -0.25000000000123201     
 -0.24999999999876066     
 -0.25000000000245021     
 -0.25000000000368472     
 -0.25000000000368611     
 -0.25000000000368611     
 -0.25000000000368611     
 -0.25000000000368611     
 -0.25000000000368172     
 -0.25000000000544464     
 -0.25000000000002665     
 -0.25000000000001471     
 -0.24999999999876832     
 -0.24999999999508019     
 -0.24999999999876843     
 -0.25000000000000294     
 -0.25000000000000433     
 -0.25000000000000433     
 -0.25000000000000433     
 -0.24999999999999992     
 -0.25000000000001571     
 -0.25000000000002665     
 -0.25000000000001332     
 -0.24999999999999867     
 -0.24999999999876427     
 -0.24999999999507613     
 -0.24999999999876421     
 -0.24999999999999872     
 -0.25000000000000011     
 -0.25000000000000011     
 -0.24999999999999570     
 -0.25000000000000905     
 -0.25000000000002665     
 -0.25000000000001332     
 -0.25000000000000006     
 -0.24999999999999875     
 -0.24999999999876421     
 -0.24999999999507608     
 -0.24999999999876421     
 -0.24999999999999870     
 -0.25000000000000011     
 -0.24999999999999570     
 -0.25000000000000899     
 -0.25000000000002665     
 -0.25000000000001332     
 -0.25000000000000006     
 -0.25000000000000017     
 -0.24999999999999870     
 -0.24999999999876421     
 -0.24999999999507608     
 -0.24999999999876421     
 -0.24999999999999872     
 -0.25000000000000050     
 -0.25000000000001549     
 -0.25000000000002665     
 -0.25000000000001332     
 -0.25000000000000006     
 -0.25000000000000017     
 -0.25000000000000011     
 -0.24999999999999870     
 -0.24999999999876421     
 -0.24999999999507608     
 -0.24999999999876418     
 -0.25000000000425493     
 -0.25000000000523753     
 -0.25000000000002665     