# vtk DataFile Version 2.0
3D Unstructured Grid of Linear Triangles
ASCII
DATASET UNSTRUCTURED_GRID
FIELD FieldData  1
TIME 1 1 double
        3605.71896
POINTS     1320 float
      0.00000000E+00  2.70000000E-02  1.00005200E-03
      5.00000000E-02  2.70000000E-02  1.00004767E-03
      1.00000000E-01  2.70000000E-02  1.00004550E-03
      1.50000000E-01  2.70000000E-02  1.00004550E-03
      2.00000000E-01  2.70000000E-02  1.00004550E-03
      2.50000000E-01  2.70000000E-02  1.00004550E-03
      3.00000000E-01  2.70000000E-02  1.00004550E-03
      3.50000000E-01  2.70000000E-02  1.00004550E-03
      4.00000000E-01  2.70000000E-02  1.00004550E-03
      4.50000000E-01  2.70000000E-02  1.00004550E-03
      5.00000000E-01  2.70000000E-02  1.00004550E-03
      0.00000000E+00  2.40000000E-02  1.00005200E-03
      5.00000000E-02  2.40000000E-02  1.00004875E-03
      1.00000000E-01  2.40000000E-02  1.00004333E-03
      1.50000000E-01  2.40000000E-02  1.00004225E-03
      2.00000000E-01  2.40000000E-02  1.00004225E-03
      2.50000000E-01  2.40000000E-02  1.00004225E-03
      3.00000000E-01  2.40000000E-02  1.00004225E-03
      3.50000000E-01  2.40000000E-02  1.00004225E-03
      4.00000000E-01  2.40000000E-02  1.00004225E-03
      4.50000000E-01  2.40000000E-02  1.00004225E-03
      5.00000000E-01  2.40000000E-02  1.00004333E-03
      0.00000000E+00  2.10000000E-02  1.00005200E-03
      5.00000000E-02  2.10000000E-02  1.00004875E-03
      1.00000000E-01  2.10000000E-02  1.00004225E-03
      1.50000000E-01  2.10000000E-02  1.00003683E-03
      2.00000000E-01  2.10000000E-02  1.00003575E-03
      2.50000000E-01  2.10000000E-02  1.00003575E-03
      3.00000000E-01  2.10000000E-02  1.00003575E-03
      3.50000000E-01  2.10000000E-02  1.00003575E-03
      4.00000000E-01  2.10000000E-02  1.00003575E-03
      4.50000000E-01  2.10000000E-02  1.00003575E-03
      5.00000000E-01  2.10000000E-02  1.00003683E-03
      0.00000000E+00  1.80000000E-02  1.00005200E-03
      5.00000000E-02  1.80000000E-02  1.00004875E-03
      1.00000000E-01  1.80000000E-02  1.00004225E-03
      1.50000000E-01  1.80000000E-02  1.00003575E-03
      2.00000000E-01  1.80000000E-02  1.00003033E-03
      2.50000000E-01  1.80000000E-02  1.00002925E-03
      3.00000000E-01  1.80000000E-02  1.00002925E-03
      3.50000000E-01  1.80000000E-02  1.00002925E-03
      4.00000000E-01  1.80000000E-02  1.00002925E-03
      4.50000000E-01  1.80000000E-02  1.00002925E-03
      5.00000000E-01  1.80000000E-02  1.00003033E-03
      0.00000000E+00  1.50000000E-02  1.00005200E-03
      5.00000000E-02  1.50000000E-02  1.00004875E-03
      1.00000000E-01  1.50000000E-02  1.00004225E-03
      1.50000000E-01  1.50000000E-02  1.00003575E-03
      2.00000000E-01  1.50000000E-02  1.00002925E-03
      2.50000000E-01  1.50000000E-02  1.00002383E-03
      3.00000000E-01  1.50000000E-02  1.00002275E-03
      3.50000000E-01  1.50000000E-02  1.00002275E-03
      4.00000000E-01  1.50000000E-02  1.00002275E-03
      4.50000000E-01  1.50000000E-02  1.00002275E-03
      5.00000000E-01  1.50000000E-02  1.00002383E-03
      0.00000000E+00  1.20000000E-02  1.00005200E-03
      5.00000000E-02  1.20000000E-02  1.00004875E-03
      1.00000000E-01  1.20000000E-02  1.00004225E-03
      1.50000000E-01  1.20000000E-02  1.00003575E-03
      2.00000000E-01  1.20000000E-02  1.00002925E-03
      2.50000000E-01  1.20000000E-02  1.00002275E-03
      3.00000000E-01  1.20000000E-02  1.00001733E-03
      3.50000000E-01  1.20000000E-02  1.00001625E-03
      4.00000000E-01  1.20000000E-02  1.00001625E-03
      4.50000000E-01  1.20000000E-02  1.00001625E-03
      5.00000000E-01  1.20000000E-02  1.00001733E-03
      0.00000000E+00  9.00000000E-03  1.00005200E-03
      5.00000000E-02  9.00000000E-03  1.00004875E-03
      1.00000000E-01  9.00000000E-03  1.00004225E-03
      1.50000000E-01  9.00000000E-03  1.00003575E-03
      2.00000000E-01  9.00000000E-03  1.00002925E-03
      2.50000000E-01  9.00000000E-03  1.00002275E-03
      3.00000000E-01  9.00000000E-03  1.00001625E-03
      3.50000000E-01  9.00000000E-03  1.00001083E-03
      4.00000000E-01  9.00000000E-03  1.00000975E-03
      4.50000000E-01  9.00000000E-03  1.00000975E-03
      5.00000000E-01  9.00000000E-03  1.00001083E-03
      0.00000000E+00  6.00000000E-03  1.00005200E-03
      5.00000000E-02  6.00000000E-03  1.00004875E-03
      1.00000000E-01  6.00000000E-03  1.00004225E-03
      1.50000000E-01  6.00000000E-03  1.00003575E-03
      2.00000000E-01  6.00000000E-03  1.00002925E-03
      2.50000000E-01  6.00000000E-03  1.00002275E-03
      3.00000000E-01  6.00000000E-03  1.00001625E-03
      3.50000000E-01  6.00000000E-03  1.00000975E-03
      4.00000000E-01  6.00000000E-03  1.00000433E-03
      4.50000000E-01  6.00000000E-03  1.00000325E-03
      5.00000000E-01  6.00000000E-03  1.00000433E-03
      0.00000000E+00  3.00000000E-03  1.00005200E-03
      5.00000000E-02  3.00000000E-03  1.00004875E-03
      1.00000000E-01  3.00000000E-03  1.00004225E-03
      1.50000000E-01  3.00000000E-03  1.00003575E-03
      2.00000000E-01  3.00000000E-03  1.00002925E-03
      2.50000000E-01  3.00000000E-03  1.00002275E-03
      3.00000000E-01  3.00000000E-03  1.00001625E-03
      3.50000000E-01  3.00000000E-03  1.00000975E-03
      4.00000000E-01  3.00000000E-03  1.00000325E-03
      4.50000000E-01  3.00000000E-03  9.96666667E-04
      5.00000000E-01  3.00000000E-03  9.96666667E-04
      0.00000000E+00  0.00000000E+00  1.00005200E-03
      5.00000000E-02  0.00000000E+00  1.00004983E-03
      1.00000000E-01  0.00000000E+00  1.00004333E-03
      1.50000000E-01  0.00000000E+00  1.00003683E-03
      2.00000000E-01  0.00000000E+00  1.00003033E-03
      2.50000000E-01  0.00000000E+00  1.00002383E-03
      3.00000000E-01  0.00000000E+00  1.00001733E-03
      3.50000000E-01  0.00000000E+00  1.00001083E-03
      4.00000000E-01  0.00000000E+00  1.00000433E-03
      4.50000000E-01  0.00000000E+00  9.96666667E-04
      5.00000000E-01  0.00000000E+00  9.90000000E-04
      0.00000000E+00  2.70000000E-02 -4.89999480E-02
      5.00000000E-02  2.70000000E-02 -4.89999523E-02
      1.00000000E-01  2.70000000E-02 -4.89999545E-02
      1.50000000E-01  2.70000000E-02 -4.89999545E-02
      2.00000000E-01  2.70000000E-02 -4.89999545E-02
      2.50000000E-01  2.70000000E-02 -4.89999545E-02
      3.00000000E-01  2.70000000E-02 -4.89999545E-02
      3.50000000E-01  2.70000000E-02 -4.89999545E-02
      4.00000000E-01  2.70000000E-02 -4.89999545E-02
      4.50000000E-01  2.70000000E-02 -4.89999545E-02
      5.00000000E-01  2.70000000E-02 -4.89999545E-02
      0.00000000E+00  2.40000000E-02 -4.89999480E-02
      5.00000000E-02  2.40000000E-02 -4.89999512E-02
      1.00000000E-01  2.40000000E-02 -4.89999567E-02
      1.50000000E-01  2.40000000E-02 -4.89999578E-02
      2.00000000E-01  2.40000000E-02 -4.89999578E-02
      2.50000000E-01  2.40000000E-02 -4.89999578E-02
      3.00000000E-01  2.40000000E-02 -4.89999578E-02
      3.50000000E-01  2.40000000E-02 -4.89999578E-02
      4.00000000E-01  2.40000000E-02 -4.89999578E-02
      4.50000000E-01  2.40000000E-02 -4.89999578E-02
      5.00000000E-01  2.40000000E-02 -4.89999567E-02
      0.00000000E+00  2.10000000E-02 -4.89999480E-02
      5.00000000E-02  2.10000000E-02 -4.89999512E-02
      1.00000000E-01  2.10000000E-02 -4.89999578E-02
      1.50000000E-01  2.10000000E-02 -4.89999632E-02
      2.00000000E-01  2.10000000E-02 -4.89999642E-02
      2.50000000E-01  2.10000000E-02 -4.89999642E-02
      3.00000000E-01  2.10000000E-02 -4.89999642E-02
      3.50000000E-01  2.10000000E-02 -4.89999642E-02
      4.00000000E-01  2.10000000E-02 -4.89999642E-02
      4.50000000E-01  2.10000000E-02 -4.89999642E-02
      5.00000000E-01  2.10000000E-02 -4.89999632E-02
      0.00000000E+00  1.80000000E-02 -4.89999480E-02
      5.00000000E-02  1.80000000E-02 -4.89999512E-02
      1.00000000E-01  1.80000000E-02 -4.89999578E-02
      1.50000000E-01  1.80000000E-02 -4.89999642E-02
      2.00000000E-01  1.80000000E-02 -4.89999697E-02
      2.50000000E-01  1.80000000E-02 -4.89999708E-02
      3.00000000E-01  1.80000000E-02 -4.89999708E-02
      3.50000000E-01  1.80000000E-02 -4.89999708E-02
      4.00000000E-01  1.80000000E-02 -4.89999708E-02
      4.50000000E-01  1.80000000E-02 -4.89999708E-02
      5.00000000E-01  1.80000000E-02 -4.89999697E-02
      0.00000000E+00  1.50000000E-02 -4.89999480E-02
      5.00000000E-02  1.50000000E-02 -4.89999512E-02
      1.00000000E-01  1.50000000E-02 -4.89999578E-02
      1.50000000E-01  1.50000000E-02 -4.89999642E-02
      2.00000000E-01  1.50000000E-02 -4.89999708E-02
      2.50000000E-01  1.50000000E-02 -4.89999762E-02
      3.00000000E-01  1.50000000E-02 -4.89999772E-02
      3.50000000E-01  1.50000000E-02 -4.89999772E-02
      4.00000000E-01  1.50000000E-02 -4.89999772E-02
      4.50000000E-01  1.50000000E-02 -4.89999772E-02
      5.00000000E-01  1.50000000E-02 -4.89999762E-02
      0.00000000E+00  1.20000000E-02 -4.89999480E-02
      5.00000000E-02  1.20000000E-02 -4.89999512E-02
      1.00000000E-01  1.20000000E-02 -4.89999578E-02
      1.50000000E-01  1.20000000E-02 -4.89999642E-02
      2.00000000E-01  1.20000000E-02 -4.89999708E-02
      2.50000000E-01  1.20000000E-02 -4.89999772E-02
      3.00000000E-01  1.20000000E-02 -4.89999827E-02
      3.50000000E-01  1.20000000E-02 -4.89999838E-02
      4.00000000E-01  1.20000000E-02 -4.89999838E-02
      4.50000000E-01  1.20000000E-02 -4.89999838E-02
      5.00000000E-01  1.20000000E-02 -4.89999827E-02
      0.00000000E+00  9.00000000E-03 -4.89999480E-02
      5.00000000E-02  9.00000000E-03 -4.89999512E-02
      1.00000000E-01  9.00000000E-03 -4.89999578E-02
      1.50000000E-01  9.00000000E-03 -4.89999642E-02
      2.00000000E-01  9.00000000E-03 -4.89999708E-02
      2.50000000E-01  9.00000000E-03 -4.89999772E-02
      3.00000000E-01  9.00000000E-03 -4.89999838E-02
      3.50000000E-01  9.00000000E-03 -4.89999892E-02
      4.00000000E-01  9.00000000E-03 -4.89999903E-02
[...]
POINT_DATA     1320
SCALARS pressure float
LOOKUP_TABLE default
 -0.55000000035031216     
 -0.54999999905526775     
 -0.55000000280108929     
 -0.55000000783869996     
 -0.55000001179630464     
 -0.54999957478408001     
 -0.54792223465805956     
 -0.54792021696592053     
 -0.54792022723446732     
 -0.54794029974763125     
 -0.54999978130030514     
 -0.55000000035556795     
 -0.55000000013654693     
 -0.55000000063895271     
 -0.55000000461401466     
 -0.55000000838307439     
 -0.54999734226291253     
 -0.52634752870143797     
 -0.52634532421465496     
 -0.52634533761332969     
 -0.52634227640774534     
 -0.54999666030547611     
 -0.55000000035935248     
 -0.55000000012838179     
 -0.54999999957285217     
 -0.54999999929442012     
 -0.55000000208647704     
 -0.54999720146616859     
 -0.52573349598546637     
 -0.52573105687961752     
 -0.52573107113267459     
 -0.52573356610311950     
 -0.54999650184202409     
 -0.55000000036192054     
 -0.55000000011499894     
 -0.54999999959999313     
 -0.54999999836573554     
 -0.54999999702649149     
 -0.54999718959732380     
 -0.52571550462691841     
 -0.52571288474049704     
 -0.52571290177170915     
 -0.52571580407948815     
 -0.54999662081918521     
 -0.55000000036366226     
 -0.55000000009789995     
 -0.54999999963288648     
 -0.54999999855629689     
 -0.54999999638617691     
 -0.54999718470493852     
 -0.52571497272716283     
 -0.52571234261032862     
 -0.52571236323050685     
 -0.52571536602450930     
 -0.54999679272560664     
 -0.55000000036506003     
 -0.55000000007906691     
 -0.54999999966692859     
 -0.54999999875762395     
 -0.54999999685692380     
 -0.54999718443476120     
 -0.52571496928191086     
 -0.52571233871570611     
 -0.52571236331901416     
 -0.52571546116227796     
 -0.54999698775267969     
 -0.55000000036664598     
 -0.55000000006076522     
 -0.54999999969791491     
 -0.54999999894511564     
 -0.54999999729803095     
 -0.54999718551203269     
 -0.52571551340653699     
 -0.52571289544816902     
 -0.52571292293302574     
 -0.52571610234641075     
 -0.54999718137166409     
 -0.55000000036894370     
 -0.55000000004527727     
 -0.54999999972259628     
 -0.54999999909782737     
 -0.54999999766081586     
 -0.54999719395734781     
 -0.52573409309038832     
 -0.52573183851907568     
 -0.52573186502121172     
 -0.52573490522901734     
 -0.54999733496065351     
 -0.55000000037240726     
 -0.55000000003459570     
 -0.54999999973883895     
 -0.54999999920022780     
 -0.54999999792880505     
 -0.54999736160803625     
 -0.52636869777668083     
 -0.52637246894615608     
 -0.52637249690621912     
 -0.52637257291896811     
 -0.54999434223158683     
 -0.55000000037736585     
 -0.55000000111345426     
 -0.55000000082883072     
 -0.55000000032609742     
 -0.54999999936095145     
 -0.54999976622791524     
 -0.54892455419099140     
 -0.54891374777866420     
 -0.54891377894378612     
 -0.54891201994232131     
 -0.54999148365251393     
 -0.50000000026450941     
 -0.49999999908677129     
 -0.50000000273719936     
 -0.50000000766871067     
 -0.50000001162419039     
 -0.50000001455106013     
 -0.49999966280574898     
 -0.49999966444093641     
 -0.49999967795064182     
 -0.49999998264299522     
 -0.50000063926832250     
 -0.50000000026843849     
 -0.50000000016751722     
 -0.50000000057848626     
 -0.50000000445697712     
 -0.50000000845831549     
 -0.50000001100816949     
 -0.49999752568431005     
 -0.49999752710452822     
 -0.49999754126275253     
 -0.49999789825778956     
 -0.50000065436007080     
 -0.50000000027138258     
 -0.50000000015957813     
 -0.49999999951798402     
 -0.49999999914990584     
 -0.50000000219953045     
 -0.50000000487487606     
 -0.49999738728802134     
 -0.49999738884562039     
 -0.49999740483561717     
 -0.49999780586393555     
 -0.50000071690086112     
 -0.50000000027353109     
 -0.50000000014724721     
 -0.49999999955237501     
 -0.49999999823242075     
 -0.49999999714870663     
 -0.49999999898387976     
 -0.49999737555706880     
 -0.49999737738624617     
 -0.49999739619790540     
 -0.49999785931272756     
 -0.50000082342074315     
 -0.50000000027516800     
 -0.50000000013201618     
 -0.49999999959353519     
 -0.49999999843239867     
 -0.49999999650791654     
 -0.49999999431303072     
 -0.49999736986965804     
 -0.49999737205196076     
 -0.49999739438200819     
 -0.49999793474550996     
 -0.50000096158495233     
 -0.50000000027664060     
 -0.50000000011573709     
 -0.49999999963608061     
 -0.49999999864100214     
 -0.49999999697130798     
 -0.49999999399812395     
 -0.49999736559135399     
 -0.49999736706660786     
 -0.49999739320977282     
 -0.49999801743143046     
 -0.50000111496013167     
 -0.50000000027831792     
 -0.50000000010040901     
 -0.49999999967487430     
 -0.49999999883307183     
 -0.49999999739965933     
 -0.49999999471569129     
 -0.49999736590652438     
 -0.49999736346825085     
 -0.49999739218795108     
 -0.49999809629174763     
 -0.50000126448678262     
 -0.50000000028054836     
 -0.50000000008793344     
 -0.49999999970564624     
 -0.49999999898681785     
 -0.49999999774377901     
 -0.49999999529987627     
 -0.49999737581547693     
 -0.49999737265067845     
 -0.49999740031732037     
 -0.49999815461397595     
 -0.50000139069099880     
 -0.50000000028361924     
 -0.50000000007987822     
 -0.49999999972531328     
 -0.49999999908579262     
 -0.49999999796593969     
 -0.49999999573001702     
 -0.49999755620789332     
 -0.49999755383481215     
 -0.49999758220466384     
 -0.49999504864211480     
 -0.49999814530442960     
 -0.50000000028771907     
 -0.50000000116060694     
 -0.50000000081538476     
 -0.50000000020322188     
 -0.49999999912601806     
 -0.49999999740768403     
 -0.49999973604667125     
 -0.49999973258917296     
 -0.49999976174935246     
 -0.49999720403756542     
 -0.49999151887413334     
 -0.45000000031432630     
 -0.44999999909926347     
 -0.45000000276087010     
 -0.45000000781100558     
 -0.45000001195178246     
 -0.45000001524640382     
 -0.45000001772635717     
 -0.45000002003390466     
 -0.45000003887690482     
 -0.45000038744155668     
 -0.45000075144837698     
 -0.45000000031840021     
 -0.45000000018082864     
 -0.45000000060006667     
 -0.45000000458906192     
 -0.45000000876365898     
 -0.45000001209936713     
 -0.45000001439175330     
 -0.45000001675493062     
 -0.45000003619166418     
 -0.45000039524057445     
 -0.45000076278777978     
 -0.45000000032164267     
 -0.45000000017518654     
 -0.44999999953369418     
 -0.44999999925309869     
 -0.45000000244151483     
 -0.45000000589556466     
 -0.45000000829033537     
 -0.45000001081080898     
 -0.45000003190102533     
 -0.45000042129735790     
 -0.45000080777824469     
 -0.45000000032421766     
 -0.45000000016637415     
 -0.44999999955950665     
 -0.44999999829273635     
 -0.44999999729608020     
 -0.44999999984773420     
 -0.45000000243344135     
 -0.45000000519481248     
 -0.45000002881723283     
 -0.45000046501721341     
 -0.45000088489977935     
 -0.45000000032636617     
 -0.45000000015548203     
 -0.44999999959083037     
 -0.44999999844240929     
 -0.44999999654333589     
 -0.44999999498298487     
 -0.44999999672137392     
 -0.44999999977921479     
 -0.45000002652727661     
 -0.45000052062088347     
 -0.45000098450893333     
 -0.45000000032838056     
 -0.45000000014385599     
 -0.44999999962373904     
 -0.44999999860025092     
 -0.44999999689255404     
 -0.44999999448364436     
 -0.44999999213997088     
 -0.44999999443154876     
 -0.45000002453697352     
 -0.45000058081007066     
 -0.45000109414908185     
 -0.45000000033057075     
 -0.45000000013293895     
 -0.44999999965425591     
 -0.44999999874721530     
 -0.44999999721827183     
 -0.44999999502927146     
 -0.44999999183850320     
 -0.44999999009652147     
 -0.45000002230886754     
 -0.45000063754228298     
 -0.45000119991630688     
 -0.45000000033322801     
 -0.45000000012409236     
 -0.44999999967883625     
 -0.44999999886604014     
 -0.44999999748204073     
 -0.44999999547180358     
 -0.44999999247561012     
 -0.44999998989645928     
 -0.45000002041079928     
 -0.45000068299756651     
 -0.45000128811375451     
 -0.45000000033659121     
 -0.45000000011843155     
 -0.44999999969472715     
 -0.44999999894310572     
 -0.44999999765333210     
 -0.44999999575953409     
 -0.44999999291761461     
 -0.44999999050100631     
 -0.45000002168625142     
 -0.44999738055661848     
 -0.44999801583268939     
 -0.45000000034081944     
 -0.45000000120001410     
 -0.45000000078353097     
 -0.45000000005307628     
 -0.44999999879594726     
 -0.44999999694260512     
 -0.44999999437703364     
 -0.44999999201922880     
 -0.45000002385987103     
 -0.44999739266877853     
 -0.44999137705736741     
 -0.40000000038516281     
 -0.39999999912105300     
 -0.40000000278450581     
 -0.40000000795162555     
 -0.40000001227444310     
 -0.40000001579159056     
 -0.40000001857423512     
 -0.40000002143362301     
 -0.40000004763996871     
 -0.40000044919746502     
 -0.40000085757357562     
 -0.40000000038941946     
 -0.40000000020341109     
 -0.40000000062177837     
 -0.40000000472026548     
 -0.40000000906558364     
 -0.40000001261026730     
 -0.40000001542246683     
 -0.40000001832567078     
 -0.40000004503210312     
 -0.40000045364735715     
 -0.40000086434853122     
 -0.40000000039302780     
 -0.40000000019997162     
 -0.39999999954991911     
 -0.39999999935738895     
 -0.40000000268409625     
 -0.40000000630800286     
 -0.40000000920517748     
 -0.40000001222938325     
 -0.40000004029851177     
 -0.40000046934735844     
 -0.40000089147973056     
 -0.40000000039611727     
 -0.40000000019451731     
 -0.39999999956749149     
 -0.39999999835635447     
 -0.39999999744875270     
 -0.40000000011060000     
 -0.40000000313792311     
 -0.40000000634632288     
 -0.40000003648639870     
 -0.40000049693863982     
 -0.40000093934697617     
 -0.40000000039887779     
 -0.40000000018774529     
 -0.39999999958898508     
 -0.39999999845705980     
 -0.39999999658737706     
 -0.39999999506451017     
 -0.39999999716813212     
 -0.40000000060234348     
 -0.40000003328228850     
 -0.40000053238288208     
 -0.40000100151497853     
 -0.40000000040153671     
 -0.40000000018051435     
 -0.39999999961176774     
 -0.39999999856390772     
 -0.39999999682299503     
 -0.39999999437477829     
 -0.39999999231494471     
 -0.39999999490658017     
 -0.40000003029809561     
 -0.40000057066812317     
 -0.40000106980686473     
 -0.40000000040433353     
 -0.40000000017374232     
 -0.39999999963308308     
 -0.39999999866400077     
 -0.39999999704384448     
 -0.39999999474391884     
 -0.39999999176040035     
 -0.39999999024580951     
 -0.40000002711681204     
 -0.40000060639285656     
 -0.40000113526402459     
 -0.40000000040749367     
 -0.40000000016829140     
 -0.39999999965038702     
 -0.39999999874536313     
 -0.39999999722346929     
 -0.39999999504431233     
 -0.39999999219096921     
 -0.39999998977942325     
 -0.40000002442612331     
 -0.40000063441718331     
 -0.40000118922236372     
 -0.40000000041120182     
 -0.40000000016486420     
 -0.39999999966163458     
 -0.39999999879833498     
 -0.39999999734048675     
 -0.39999999524009455     
 -0.39999999247177043     
 -0.39999999018363391     
 -0.40000002515056893     
 -0.39999732041549896     
 -0.39999789320465678     
 -0.40000000041558165     
 -0.40000000124724611     
 -0.40000000074883935     
 -0.39999999989999613     
 -0.39999999846436396     
 -0.39999999639130912     
 -0.39999999365262329     
 -0.39999999141031733     
 -0.40000002690925296     
 -0.39999732826638595     
 -0.39999124434591993     
 -0.35000000048623026     
 -0.34999999915996438     
 -0.35000000280346760     
 -0.35000000807149961     
 -0.35000001255476393     
 -0.35000001626913263     
 -0.35000001928189295     
 -0.35000002294257093     
 -0.35000005910691523     
 -0.35000050434270114     
 -0.35000094159562251     
 -0.35000000049070001     
 -0.35000000024301270     
 -0.35000000063907960     
 -0.35000000483206090     
 -0.35000000932805203     
 -0.35000001305803674     
 -0.35000001608790099     
 -0.35000001978072848     
 -0.35000005631663422     
 -0.35000050547676281     
 -0.35000094436006329     
 -0.35000000049471985     
 -0.35000000024145195     
 -0.34999999956244326     
 -0.34999999944598970     
 -0.35000000289527389     
 -0.35000000667018505     
 -0.35000000974892254     
 -0.35000001352597543     
 -0.35000005103409809     
 -0.35000051160782819     
 -0.35000095590028008     
 -0.35000000049838320     
 -0.35000000023884598     
 -0.34999999957273814     
 -0.34999999840956519     
 -0.34999999758160921     
 -0.35000000034199846     
 -0.35000000349551147     
 -0.35000000739935005     
 -0.35000004637085763     
 -0.35000052447559477     
 -0.35000097842170402     
 -0.35000000050182067     
 -0.35000000023555766     
 -0.34999999958537487     
 -0.34999999846709751     
 -0.34999999662458425     
 -0.34999999513602564     
 -0.34999999729789111     
 -0.35000000135643672     
 -0.35000004211384933     
 -0.35000054175688899     
 -0.35000100847557203     
 -0.35000000050518904     
 -0.35000000023203387     
 -0.34999999959881700     
 -0.34999999852828834     
 -0.34999999675892790     
 -0.34999999427681461     
 -0.34999999220290573     
 -0.34999999534272003     
 -0.35000003800078722     
 -0.35000056059124357     
 -0.35000104170504792     
 -0.35000000050865243     
 -0.35000000022875116     
 -0.34999999961143669     
 -0.34999999858574571     
 -0.34999999688509181     
 -0.34999999448731883     
 -0.34999999142177307     
 -0.34999999038352098     
 -0.35000003375161787     
 -0.35000057792290667     
 -0.35000107336828373     
 -0.35000000051236430     
 -0.35000000022615624     
 -0.34999999962170808     
 -0.34999999863254050     
 -0.34999999698787082     
 -0.34999999465883569     
 -0.34999999166808893     
 -0.34999998967430496     
 -0.35000003018564574     
 -0.35000059086913909     
 -0.35000109891000830     
 -0.35000000051645164     
 -0.35000000022461120     
 -0.34999999962839140     
 -0.34999999866303844     
 -0.34999999705489382     
 -0.34999999477071481     
 -0.34999999182887259     
 -0.34999998992059878     
 -0.35000003033684829     
 -0.34999726698408157     
 -0.34999778334113230     
 -0.35000000052100000     
 -0.35000000130767955     
 -0.35000000071401233     
 -0.34999999975689872     
 -0.34999999816143268     
 -0.34999999589282471     
 -0.34999999296811957     
 -0.34999999109335117     
 -0.35000003189700246     
 -0.34999727139281872     
 -0.34999112621084832     
 -0.30000000064119869     
 -0.29999999923167531     
 -0.30000000281701056     
 -0.30000000815628525     
 -0.30000001276053845     
 -0.30000001662575054     
 -0.30000001985313079     
 -0.30000002483218335     
 -0.30000007444878773     
 -0.30000054531274484     
 -0.30000098699914368     
 -0.30000000064591126     
 -0.30000000031526375     
 -0.30000000065135818     
 -0.30000000491078971     
 -0.30000000952046713     
 -0.30000001339235904     
 -0.30000001662753217     
 -0.30000002162896083     
 -0.30000007147802998     
 -0.30000054391444253     
 -0.30000098691674376     
 -0.30000000065036303     
 -0.30000000031506424     
 -0.29999999957102741     
 -0.29999999950727174     
 -0.30000000304922608     
 -0.30000000694030393     
 -0.30000001019712030     
 -0.30000001524940084     
 -0.30000006565096415     
 -0.30000054275675242     
 -0.30000098748108456     
 -0.30000000065460974     
 -0.30000000031448981     
 -0.29999999957565143     
 -0.29999999844413378     
 -0.29999999767666680     
 -0.30000000051379228     
 -0.30000000380354225     
 -0.30000000892993961     
 -0.30000006014536645     
 -0.30000054444692664     
 -0.30000099221422366     
 -0.30000000065872745     
 -0.30000000031367013     
 -0.29999999958133361     
 -0.29999999846892644     
 -0.29999999664745536     
 -0.29999999518728054     
 -0.29999999743400796     
 -0.30000000264977034     
 -0.30000005485024112     
 -0.30000054799865455     
 -0.30000099980298311     
 -0.30000000066280469     
 -0.30000000031276652     
 -0.29999999958738510     
 -0.29999999849531495     
 -0.29999999670505267     
 -0.29999999419988571     
 -0.29999999215615292     
 -0.29999999638334329     
 -0.30000004962917187     
 -0.30000055220034549     
 -0.30000100859078060     
 -0.30000000066693389     
 -0.30000000031195106     
 -0.29999999959307039     
 -0.29999999852010539     
 -0.29999999675916716     
 -0.29999999429002921     
 -0.29999999120328047     
 -0.29999999118678550     
 -0.30000004433678573     
 -0.30000055576076912     
 -0.30000101677752544     
 -0.30000000067120175     
 -0.30000000031138491     
 -0.29999999959769924     
 -0.29999999854029707     
 -0.29999999680326234     
 -0.29999999436349728     
 -0.29999999130970711     
 -0.29999999028452545     
 -0.30000003991959090     
 -0.30000055746458992     
 -0.30000102263673301     
 -0.30000000067568044     
 -0.30000000031119617     
 -0.29999999960071039     
 -0.29999999855344478     
 -0.29999999683201045     
 -0.29999999441142355     
 -0.29999999137930961     
 -0.29999999040569642     
 -0.30000003951583476     
 -0.29999722623353803     
 -0.29999769355307088     
 -0.30000000068042193     
 -0.30000000139479760     
 -0.30000000068506910     
 -0.29999999964128798     
 -0.29999999792526788     
 -0.29999999551135564     
 -0.29999999248707443     
 -0.29999999153666090     
 -0.30000004088576637     
 -0.29999722808798707     
 -0.29999103070380950     
 -0.25000000096962671     
 -0.24999999946711268     
 -0.25000000292941121     
 -0.25000000830225566     
 -0.25000001298881941     
 -0.25000001697114377     
 -0.25000002050388265     
 -0.25000002813243921     
 -0.25000009633352810     
 -0.25000056527700126     
 -0.25000097896699236     
 -0.25000000097494440     
 -0.25000000055158150     
 -0.25000000076357592     
 -0.25000000505391812     
 -0.25000000974190695     
 -0.25000001372607505     
 -0.25000001726195248     
 -0.25000002490822543     
 -0.25000009323371858     
 -0.25000056247349445     
 -0.25000097745236594     
 -0.25000000098012415     
 -0.25000000055263516     
 -0.24999999968159672     
 -0.24999999964112454     
 -0.25000000324978583     
 -0.25000000723897398     
 -0.25000001078168915     
 -0.25000001845587089     
 -0.25000008700876375     
 -0.25000055728906817     
 -0.25000097264330967     
 -0.25000000098519881     
 -0.25000000055362015     
 -0.24999999968337899     
 -0.24999999856346883     
 -0.24999999784490676     
 -0.25000000075837170     
 -0.25000000431094316     
 -0.25000001202135663     
 -0.25000008088573988     
 -0.25000055281306000     
 -0.25000096870374511     
 -0.25000000099020808     
 -0.25000000055456056     
 -0.24999999968544301     
 -0.24999999857032590     
 -0.24999999677591497     
 -0.24999999536534576     
 -0.24999999784641228     
 -0.25000000559852076     
 -0.25000007482940850     
 -0.25000054879975503     
 -0.25000096535959904     
 -0.25000000099519587     
 -0.25000000055548655     
 -0.24999999968760600     
 -0.24999999857759417     
 -0.24999999679114329     
 -0.24999999430712846     
 -0.24999999246738394     
 -0.24999999917978943     
 -0.25000006879648040     
 -0.25000054494779106     
 -0.25000096226526547     
 -0.25000000100020664     
 -0.25000000055643140     
 -0.24999999968967421     
 -0.24999999858445596     
 -0.24999999680548832     
 -0.24999999433077527     
 -0.24999999141953982     
 -0.24999999384042010     
 -0.25000006274082870     
 -0.25000054093623908     
 -0.25000095904535480     
 -0.25000000100528363     