# vtk DataFile Version 2.0
3D Unstructured Grid of Linear Triangles
ASCII
DATASET UNSTRUCTURED_GRID
FIELD FieldData  1
TIME 1 1 double
       10805.71896
POINTS     1320 float
      0.00000000E+00  2.70000000E-02  1.00005200E-03
      5.00000000E-02  2.70000000E-02  1.00004767E-03
      1.00000000E-01  2.70000000E-02  1.00004550E-03
      1.50000000E-01  2.70000000E-02  1.00004550E-03
      2.00000000E-01  2.70000000E-02  1.00004550E-03
      2.50000000E-01  2.70000000E-02  1.00004550E-03
      3.00000000E-01  2.70000000E-02  1.00004550E-03
      3.50000000E-01  2.70000000E-02  1.00004550E-03
      4.00000000E-01  2.70000000E-02  1.00004550E-03
      4.50000000E-01  2.70000000E-02  1.00004550E-03
      5.00000000E-01  2.70000000E-02  1.00004550E-03
      0.00000000E+00  2.40000000E-02  1.00005200E-03
      5.00000000E-02  2.40000000E-02  1.00004875E-03
      1.00000000E-01  2.40000000E-02  1.00004333E-03
      1.50000000E-01  2.40000000E-02  1.00004225E-03
      2.00000000E-01  2.40000000E-02  1.00004225E-03
      2.50000000E-01  2.40000000E-02  1.00004225E-03
      3.00000000E-01  2.40000000E-02  1.00004225E-03
      3.50000000E-01  2.40000000E-02  1.00004225E-03
      4.00000000E-01  2.40000000E-02  1.00004225E-03
      4.50000000E-01  2.40000000E-02  1.00004225E-03
      5.00000000E-01  2.40000000E-02  1.00004333E-03
      0.00000000E+00  2.10000000E-02  1.00005200E-03
      5.00000000E-02  2.10000000E-02  1.00004875E-03
      1.00000000E-01  2.10000000E-02  1.00004225E-03
      1.50000000E-01  2.10000000E-02  1.00003683E-03
      2.00000000E-01  2.10000000E-02  1.00003575E-03
      2.50000000E-01  2.10000000E-02  1.00003575E-03
      3.00000000E-01  2.10000000E-02  1.00003575E-03
      3.50000000E-01  2.10000000E-02  1.00003575E-03
      4.00000000E-01  2.10000000E-02  1.00003575E-03
      4.50000000E-01  2.10000000E-02  1.00003575E-03
      5.00000000E-01  2.10000000E-02  1.00003683E-03
      0.00000000E+00  1.80000000E-02  1.00005200E-03
      5.00000000E-02  1.80000000E-02  1.00004875E-03
      1.00000000E-01  1.80000000E-02  1.00004225E-03
      1.50000000E-01  1.80000000E-02  1.00003575E-03
      2.00000000E-01  1.80000000E-02  1.00003033E-03
      2.50000000E-01  1.80000000E-02  1.00002925E-03
      3.00000000E-01  1.80000000E-02  1.00002925E-03
      3.50000000E-01  1.80000000E-02  1.00002925E-03
      4.00000000E-01  1.80000000E-02  1.00002925E-03
      4.50000000E-01  1.80000000E-02  1.00002925E-03
      5.00000000E-01  1.80000000E-02  1.00003033E-03
      0.00000000E+00  1.50000000E-02  1.00005200E-03
      5.00000000E-02  1.50000000E-02  1.00004875E-03
      1.00000000E-01  1.50000000E-02  1.00004225E-03
      1.50000000E-01  1.50000000E-02  1.00003575E-03
      2.00000000E-01  1.50000000E-02  1.00002925E-03
      2.50000000E-01  1.50000000E-02  1.00002383E-03
      3.00000000E-01  1.50000000E-02  1.00002275E-03
      3.50000000E-01  1.50000000E-02  1.00002275E-03
      4.00000000E-01  1.50000000E-02  1.00002275E-03
      4.50000000E-01  1.50000000E-02  1.00002275E-03
      5.00000000E-01  1.50000000E-02  1.00002383E-03
      0.00000000E+00  1.20000000E-02  1.00005200E-03
      5.00000000E-02  1.20000000E-02  1.00004875E-03
      1.00000000E-01  1.20000000E-02  1.00004225E-03
      1.50000000E-01  1.20000000E-02  1.00003575E-03
      2.00000000E-01  1.20000000E-02  1.00002925E-03
      2.50000000E-01  1.20000000E-02  1.00002275E-03
      3.00000000E-01  1.20000000E-02  1.00001733E-03
      3.50000000E-01  1.20000000E-02  1.00001625E-03
      4.00000000E-01  1.20000000E-02  1.00001625E-03
      4.50000000E-01  1.20000000E-02  1.00001625E-03
      5.00000000E-01  1.20000000E-02  1.00001733E-03
      0.00000000E+00  9.00000000E-03  1.00005200E-03
      5.00000000E-02  9.00000000E-03  1.00004875E-03
      1.00000000E-01  9.00000000E-03  1.00004225E-03
      1.50000000E-01  9.00000000E-03  1.00003575E-03
      2.00000000E-01  9.00000000E-03  1.00002925E-03
      2.50000000E-01  9.00000000E-03  1.00002275E-03
      3.00000000E-01  9.00000000E-03  1.00001625E-03
      3.50000000E-01  9.00000000E-03  1.00001083E-03
      4.00000000E-01  9.00000000E-03  1.00000975E-03
      4.50000000E-01  9.00000000E-03  1.00000975E-03
      5.00000000E-01  9.00000000E-03  1.00001083E-03
      0.00000000E+00  6.00000000E-03  1.00005200E-03
      5.00000000E-02  6.00000000E-03  1.00004875E-03
      1.00000000E-01  6.00000000E-03  1.00004225E-03
      1.50000000E-01  6.00000000E-03  1.00003575E-03
      2.00000000E-01  6.00000000E-03  1.00002925E-03
      2.50000000E-01  6.00000000E-03  1.00002275E-03
      3.00000000E-01  6.00000000E-03  1.00001625E-03
      3.50000000E-01  6.00000000E-03  1.00000975E-03
      4.00000000E-01  6.00000000E-03  1.00000433E-03
      4.50000000E-01  6.00000000E-03  1.00000325E-03
      5.00000000E-01  6.00000000E-03  1.00000433E-03
      0.00000000E+00  3.00000000E-03  1.00005200E-03
      5.00000000E-02  3.00000000E-03  1.00004875E-03
      1.00000000E-01  3.00000000E-03  1.00004225E-03
      1.50000000E-01  3.00000000E-03  1.00003575E-03
      2.00000000E-01  3.00000000E-03  1.00002925E-03
      2.50000000E-01  3.00000000E-03  1.00002275E-03
      3.00000000E-01  3.00000000E-03  1.00001625E-03
      3.50000000E-01  3.00000000E-03  1.00000975E-03
      4.00000000E-01  3.00000000E-03  1.00000325E-03
      4.50000000E-01  3.00000000E-03  9.96666667E-04
      5.00000000E-01  3.00000000E-03  9.96666667E-04
      0.00000000E+00  0.00000000E+00  1.00005200E-03
      5.00000000E-02  0.00000000E+00  1.00004983E-03
      1.00000000E-01  0.00000000E+00  1.00004333E-03
      1.50000000E-01  0.00000000E+00  1.00003683E-03
      2.00000000E-01  0.00000000E+00  1.00003033E-03
      2.50000000E-01  0.00000000E+00  1.00002383E-03
      3.00000000E-01  0.00000000E+00  1.00001733E-03
      3.50000000E-01  0.00000000E+00  1.00001083E-03
      4.00000000E-01  0.00000000E+00  1.00000433E-03
      4.50000000E-01  0.00000000E+00  9.96666667E-04
      5.00000000E-01  0.00000000E+00  9.90000000E-04
      0.00000000E+00  2.70000000E-02 -4.89999480E-02
      5.00000000E-02  2.70000000E-02 -4.89999523E-02
      1.00000000E-01  2.70000000E-02 -4.89999545E-02
      1.50000000E-01  2.70000000E-02 -4.89999545E-02
      2.00000000E-01  2.70000000E-02 -4.89999545E-02
      2.50000000E-01  2.70000000E-02 -4.89999545E-02
      3.00000000E-01  2.70000000E-02 -4.89999545E-02
      3.50000000E-01  2.70000000E-02 -4.89999545E-02
      4.00000000E-01  2.70000000E-02 -4.89999545E-02
      4.50000000E-01  2.70000000E-02 -4.89999545E-02
      5.00000000E-01  2.70000000E-02 -4.89999545E-02
      0.00000000E+00  2.40000000E-02 -4.89999480E-02
      5.00000000E-02  2.40000000E-02 -4.89999512E-02
      1.00000000E-01  2.40000000E-02 -4.89999567E-02
      1.50000000E-01  2.40000000E-02 -4.89999578E-02
      2.00000000E-01  2.40000000E-02 -4.89999578E-02
      2.50000000E-01  2.40000000E-02 -4.89999578E-02
      3.00000000E-01  2.40000000E-02 -4.89999578E-02
      3.50000000E-01  2.40000000E-02 -4.89999578E-02
      4.00000000E-01  2.40000000E-02 -4.89999578E-02
      4.50000000E-01  2.40000000E-02 -4.89999578E-02
      5.00000000E-01  2.40000000E-02 -4.89999567E-02
      0.00000000E+00  2.10000000E-02 -4.89999480E-02
      5.00000000E-02  2.10000000E-02 -4.89999512E-02
      1.00000000E-01  2.10000000E-02 -4.89999578E-02
      1.50000000E-01  2.10000000E-02 -4.89999632E-02
      2.00000000E-01  2.10000000E-02 -4.89999642E-02
      2.50000000E-01  2.10000000E-02 -4.89999642E-02
      3.00000000E-01  2.10000000E-02 -4.89999642E-02
      3.50000000E-01  2.10000000E-02 -4.89999642E-02
      4.00000000E-01  2.10000000E-02 -4.89999642E-02
      4.50000000E-01  2.10000000E-02 -4.89999642E-02
      5.00000000E-01  2.10000000E-02 -4.89999632E-02
      0.00000000E+00  1.80000000E-02 -4.89999480E-02
      5.00000000E-02  1.80000000E-02 -4.89999512E-02
      1.00000000E-01  1.80000000E-02 -4.89999578E-02
      1.50000000E-01  1.80000000E-02 -4.89999642E-02
      2.00000000E-01  1.80000000E-02 -4.89999697E-02
      2.50000000E-01  1.80000000E-02 -4.89999708E-02
      3.00000000E-01  1.80000000E-02 -4.89999708E-02
      3.50000000E-01  1.80000000E-02 -4.89999708E-02
      4.00000000E-01  1.80000000E-02 -4.89999708E-02
      4.50000000E-01  1.80000000E-02 -4.89999708E-02
      5.00000000E-01  1.80000000E-02 -4.89999697E-02
      0.00000000E+00  1.50000000E-02 -4.89999480E-02
      5.00000000E-02  1.50000000E-02 -4.89999512E-02
      1.00000000E-01  1.50000000E-02 -4.89999578E-02
      1.50000000E-01  1.50000000E-02 -4.89999642E-02
      2.00000000E-01  1.50000000E-02 -4.89999708E-02
      2.50000000E-01  1.50000000E-02 -4.89999762E-02
      3.00000000E-01  1.50000000E-02 -4.89999772E-02
      3.50000000E-01  1.50000000E-02 -4.89999772E-02
      4.00000000E-01  1.50000000E-02 -4.89999772E-02
      4.50000000E-01  1.50000000E-02 -4.89999772E-02
      5.00000000E-01  1.50000000E-02 -4.89999762E-02
      0.00000000E+00  1.20000000E-02 -4.89999480E-02
      5.00000000E-02  1.20000000E-02 -4.89999512E-02
      1.00000000E-01  1.20000000E-02 -4.89999578E-02
      1.50000000E-01  1.20000000E-02 -4.89999642E-02
      2.00000000E-01  1.20000000E-02 -4.89999708E-02
      2.50000000E-01  1.20000000E-02 -4.89999772E-02
      3.00000000E-01  1.20000000E-02 -4.89999827E-02
      3.50000000E-01  1.20000000E-02 -4.89999838E-02
      4.00000000E-01  1.20000000E-02 -4.89999838E-02
      4.50000000E-01  1.20000000E-02 -4.89999838E-02
      5.00000000E-01  1.20000000E-02 -4.89999827E-02
      0.00000000E+00  9.00000000E-03 -4.89999480E-02
      5.00000000E-02  9.00000000E-03 -4.89999512E-02
      1.00000000E-01  9.00000000E-03 -4.89999578E-02
      1.50000000E-01  9.00000000E-03 -4.89999642E-02
      2.00000000E-01  9.00000000E-03 -4.89999708E-02
      2.50000000E-01  9.00000000E-03 -4.89999772E-02
      3.00000000E-01  9.00000000E-03 -4.89999838E-02
      3.50000000E-01  9.00000000E-03 -4.89999892E-02
      4.00000000E-01  9.00000000E-03 -4.89999903E-02
[...]
POINT_DATA     1320
SCALARS pressure float
LOOKUP_TABLE default
 -0.54999995190020423     
 -0.54999819529497884     
 -0.54984580599125665     
 -0.53887404619541623     
 -0.30243390967023986     
 -0.10418583174256041     
  -3.9330880345930720E-002
  -3.5774773492869789E-002
  -3.6403218337500459E-002
  -3.7950707497427176E-002
  -6.4131234197531611E-002
 -0.54999994942375297     
 -0.54999819369896163     
 -0.54984591924274617     
 -0.53901349583372693     
 -0.30269755953160049     
 -0.10409825420078112     
  -3.9171296935408308E-002
  -3.5684394556081273E-002
  -3.6329194971678275E-002
  -3.7891037390067030E-002
  -6.4129335473844085E-002
 -0.54999994805873964     
 -0.54999819502097158     
 -0.54984644007210282     
 -0.53911816829721526     
 -0.30293685374724805     
 -0.10401254509595009     
  -3.9005732236490974E-002
  -3.5589223596824295E-002
  -3.6250690934664258E-002
  -3.7824636538276418E-002
  -6.4127031032338508E-002
 -0.54999994732452995     
 -0.54999819904544012     
 -0.54984713182628142     
 -0.53920013641520215     
 -0.30315952117896500     
 -0.10393077536276081     
  -3.8873476188498304E-002
  -3.5513244245435976E-002
  -3.6189075055121513E-002
  -3.7777101181558893E-002
  -6.4125334719136701E-002
 -0.54999994691226417     
 -0.54999820459852489     
 -0.54984788292445075     
 -0.53926898617863350     
 -0.30337285898813826     
 -0.10385416299904933     
  -3.8788983884168710E-002
  -3.5466886405761074E-002
  -3.6154000001083368E-002
  -3.7759957433067856E-002
  -6.4125014280103559E-002
 -0.54999994660168916     
 -0.54999821071481814     
 -0.54984864723252980     
 -0.53933269070408940     
 -0.30358371955682845     
 -0.10378261948405086     
  -3.8755816622588965E-002
  -3.5453271022350547E-002
  -3.6148484168203217E-002
  -3.7777076795695995E-002
  -6.4126378088720001E-002
 -0.54999994620028614     
 -0.54999821653938707     
 -0.54984940149423023     
 -0.53939853753119060     
 -0.30379860986430751     
 -0.10371462864652618     
  -3.8771211632026299E-002
  -3.5470321452822778E-002
  -3.6170627088928521E-002
  -3.7826835979014442E-002
  -6.4129200010765691E-002
 -0.54999994548912534     
 -0.54999822117601527     
 -0.54985011202669531     
 -0.53947408621431348     
 -0.30402387226204036     
 -0.10364716439254294     
  -3.8824554206232501E-002
  -3.5509775370648845E-002
  -3.6212709508918084E-002
  -3.7901050414830162E-002
  -6.4132708476895173E-002
 -0.54999994416194498     
 -0.54999822356266137     
 -0.54985069783662921     
 -0.53956813766367584     
 -0.30426595822532188     
 -0.10357563493975797     
  -3.8888758947914485E-002
  -3.5552640656377275E-002
  -3.6257289226495064E-002
  -3.7980180901601879E-002
  -6.4135171084034867E-002
 -0.54999994174222389     
 -0.54999822355964612     
 -0.54985097914867209     
 -0.53969168962491476     
 -0.30453180734062191     
 -0.10349419566613542     
  -3.8898854343573909E-002
  -3.5558999654351456E-002
  -3.6268629479654833E-002
  -3.8022406649581141E-002
  -6.4135037729363742E-002
 -0.49999996238705707     
 -0.49999788966149461     
 -0.49981280460501015     
 -0.48600105475241040     
 -0.25930585550064400     
  -9.1727351016601053E-002
  -4.8228272046086269E-002
  -3.7508176719661487E-002
  -3.5672087641869049E-002
  -3.8687810571501245E-002
  -4.7643108756832850E-002
 -0.49999996034078958     
 -0.49999787835892817     
 -0.49981244853618501     
 -0.48614683697498334     
 -0.25945483135593178     
  -9.1731601570980537E-002
  -4.8211284137439289E-002
  -3.7495849614486924E-002
  -3.5662851377838041E-002
  -3.8677108186596518E-002
  -4.7642723692462460E-002
 -0.49999995916995604     
 -0.49999787334314116     
 -0.49981275797653646     
 -0.48626301453994264     
 -0.25960099571580225     
  -9.1733628591046168E-002
  -4.8192945091191951E-002
  -3.7482926471115140E-002
  -3.5653301497442100E-002
  -3.8666538168135346E-002
  -4.7642034902524187E-002
 -0.49999995849759382     
 -0.49999787329214279     
 -0.49981339197448499     
 -0.48635898841636382     
 -0.25974536857050207     
  -9.1735569374835971E-002
  -4.8174968080642470E-002
  -3.7470331008890106E-002
  -3.5644156754688308E-002
  -3.8656719383665182E-002
  -4.7641167421500541E-002
 -0.49999995807388808     
 -0.49999787602800955     
 -0.49981416512365406     
 -0.48644318064732056     
 -0.25988898199739863     
  -9.1739156342331485E-002
  -4.8158653591790744E-002
  -3.7458765970830234E-002
  -3.5635947588165351E-002
  -3.8648065685706383E-002
  -4.7640234337477584E-002
 -0.49999995771172318     
 -0.49999787966918358     
 -0.49981497629392763     
 -0.48652333445016671     
 -0.26003277633846733     
  -9.1745347506301714E-002
  -4.8144616988742298E-002
  -3.7448537115364493E-002
  -3.5628870954816413E-002
  -3.8640648937780762E-002
  -4.7639325380693980E-002
 -0.49999995723798074     
 -0.49999788246111304     
 -0.49981575111244181     
 -0.48660695770107876     
 -0.26017755013966948     
  -9.1754214184340530E-002
  -4.8132702534155400E-002
  -3.7439489734675320E-002
  -3.5622737051345832E-002
  -3.8634149840441591E-002
  -4.7638503421304643E-002
 -0.49999995644790973     
 -0.49999788253722216     
 -0.49981639144685575     
 -0.48670182904071052     
 -0.26032395763058913     
  -9.1764901612321981E-002
  -4.8121971597033471E-002
  -3.7431006379714880E-002
  -3.5616969537066223E-002
  -3.8627855797857331E-002
  -4.7637809106364622E-002
 -0.49999995505110340     
 -0.49999787774012106     
 -0.49981671890058588     
 -0.48681647471837897     
 -0.26047255480855291     
  -9.1775699079663695E-002
  -4.8110780769243577E-002
  -3.7422085143853652E-002
  -3.5610675284232222E-002
  -3.8620944583611413E-002
  -4.7637453653643365E-002
 -0.49999995259521662     
 -0.49999786675425223     
 -0.49981640177031555     
 -0.48696051827537529     
 -0.26062389716031564     
  -9.1784539658910258E-002
  -4.8097152391025591E-002
  -3.7411598473838112E-002
  -3.5602875439898443E-002
  -3.8611790402803867E-002
  -4.7637475893194413E-002
 -0.44999998713968248     
 -0.44999921472796561     
 -0.44992716146283573     
 -0.44413766041887698     
 -0.29938842824951245     
 -0.12738058030123015     
  -7.0713085103629142E-002
  -5.0394900752959756E-002
  -4.5282821719584324E-002
  -5.0627398550547098E-002
  -6.1306980365535953E-002
 -0.44999998637264588     
 -0.44999921048478153     
 -0.44992697786449148     
 -0.44421348906238467     
 -0.29967355201800860     
 -0.12742743523849304     
  -7.0710420197803381E-002
  -5.0382980897066561E-002
  -4.5268490134591562E-002
  -5.0608797757829685E-002
  -6.1303992631462689E-002
 -0.44999998594625029     
 -0.44999920864872095     
 -0.44992713524047739     
 -0.44427335036288612     
 -0.29995380673864092     
 -0.12747415798030706     
  -7.0708194014813527E-002
  -5.0371498789230265E-002
  -4.5254641305471049E-002
  -5.0591111191222088E-002
  -6.1302479973152413E-002
 -0.44999998571429289     
 -0.44999920919932790     
 -0.44992746126933442     
 -0.44432300533751551     
 -0.30023084659376731     
 -0.12752088480185444     
  -7.0706318385357819E-002
  -5.0360347986588762E-002
  -4.5241150813679964E-002
  -5.0574085272058665E-002
  -6.1302004829964646E-002
 -0.44999998557987952     
 -0.44999921110540952     
 -0.44992786149627800     
 -0.44436694855883463     
 -0.30050636216331078     
 -0.12756775509365864     
  -7.0704706748665955E-002
  -5.0349421473718445E-002
  -4.5227891976326207E-002
  -5.0557465499814692E-002
  -6.1302154264631453E-002
 -0.44999998547013553     
 -0.44999921345383498     
 -0.44992828208807906     
 -0.44440889254371752     
 -0.30078200833392899     
 -0.12761485623842805     
  -7.0703242494270097E-002
  -5.0338594139851311E-002
  -4.5214722741494767E-002
  -5.0540983371771923E-002
  -6.1302524839112291E-002
 -0.44999998531749308     
 -0.44999921538482351     
 -0.44992868174260814     
 -0.44445227564204326     
 -0.30105935355979624     
 -0.12766220693423788     
  -7.0701764270891060E-002
  -5.0327714795576801E-002
  -4.5201480681143089E-002
  -5.0524351122122085E-002
  -6.1302712595992126E-002
 -0.44999998504224181     
 -0.44999921599665826     
 -0.44992900883758957     
 -0.44450078363586404     
 -0.30133986906403060     
 -0.12770974930936088     
  -7.0700072441919282E-002
  -5.0316606512379992E-002
  -4.5187983948845711E-002
  -5.0507262323769765E-002
  -6.1302303634992644E-002
 -0.44999998453156054     
 -0.44999921427545203     
 -0.44992917489115131     
 -0.44455887761536111     
 -0.30162494980734256     
 -0.12775737436655321     
  -7.0697936668670691E-002
  -5.0305080665928210E-002
  -4.5174041036770363E-002
  -5.0491532104133874E-002
  -6.1304391703486040E-002
 -0.44999998360919696     
 -0.44999921020983114     
 -0.44992901707656330     
 -0.44463231325178465     
 -0.30191596655981695     
 -0.12780497080596398     
  -7.0695123274457386E-002
  -5.0292948401392396E-002
  -4.5159466037660509E-002
  -5.0472592930299869E-002
  -6.1308557886862236E-002
 -0.39999999987271256     
 -0.39999993320494337     
 -0.39999402987342825     
 -0.39949698542136020     
 -0.37305869066950748     
 -0.23919257013410319     
 -0.14353879184196369     
 -0.10379004239737816     
  -9.7358934215972998E-002
 -0.12219325853712004     
 -0.17558825550131135     
 -0.39999999980854006     
 -0.39999993373422532     
 -0.39999399784559359     
 -0.39950176599789372     
 -0.37334243453136751     
 -0.23947209822290560     
 -0.14365062322945443     
 -0.10384625136789641     
  -9.7411451275648098E-002
 -0.12228816569678382     
 -0.17599816610714025     
 -0.39999999977344081     
 -0.39999993351028595     
 -0.39999400357969189     
 -0.39950673100700251     
 -0.37360349135738374     
 -0.23974510621774467     
 -0.14376072011414484     
 -0.10390155658126901     
  -9.7462774058047402E-002
 -0.12238145318905032     
 -0.17639160893879449     
 -0.39999999975520539     
 -0.39999993352590624     
 -0.39999403165576120     
 -0.39951181612341469     
 -0.37384818111478418     
 -0.24001366924263140     
 -0.14386964219372422     
 -0.10395625033579727     
  -9.7513281075921082E-002
 -0.12247362883182224     
 -0.17677374280088815     
 -0.39999999974555978     
 -0.39999993368416281     
 -0.39999407071205145     
 -0.39951694867553944     
 -0.37408294418354909     
 -0.24027987390537681     
 -0.14397796682705066     
 -0.10401063283164171     
  -9.7563356897800574E-002
 -0.12256522045203408     
 -0.17714967207777302     
 -0.39999999973809974     
 -0.39999993389011151     
 -0.39999411309975341     
 -0.39952206968975357     
 -0.37431430753329897     
 -0.24054581022856134     
 -0.14408627784245834     
 -0.10406500679710672     
  -9.7613387880077188E-002
 -0.12265676630664273     
 -0.17752448694269130     
 -0.39999999972680711     
 -0.39999993405066014     
 -0.39999415205163968     
 -0.39952712288432368     
 -0.37454884835280988     
 -0.24081359140624828     
 -0.14419516068214613     
 -0.10411967605674891     
  -9.7663763848462704E-002
 -0.12274881337489382     
 -0.17790332454692784     
 -0.39999999970468519     
 -0.39999993407184053     
 -0.39999418014720517     
 -0.39953203402182086     
 -0.37479317869369033     
 -0.24108534480958652     
 -0.14430521419370906     
 -0.10417494508460846     
  -9.7714878921253551E-002
 -0.12284191682676494     
 -0.17829143617148779     
 -0.39999999966207433     
 -0.39999993385817817     
 -0.39999418766804229     
 -0.39953669504548206     
 -0.37505392696268613     
 -0.24136322344416108     
 -0.14441703694261343     
 -0.10423113401579680     
  -9.7767131592539844E-002
 -0.12294332475690191     
 -0.17870310963709737     
 -0.39999999958413901     
 -0.39999993440288428     
 -0.39999416149027789     
 -0.39954096982550957     
 -0.37533770190317106     
 -0.24164941594507361     
 -0.14453122765166457     
 -0.10428856707728225     
  -9.7820936960260230E-002
 -0.12304018008090772     
 -0.17914386528436749     
 -0.35000000134466736     
 -0.34999999672838883     
 -0.34999979718977392     
 -0.34998729677730478     
 -0.34937929844182652     
 -0.33981944057090790     
 -0.31086349495834165     
 -0.28483827715913507     
 -0.28866645673807267     
 -0.31988862009381758     
 -0.34095895938746379     
 -0.35000000134545861     
 -0.34999999778490021     
 -0.34999979343084464     
 -0.34998725331130032     
 -0.34938706351087068     
 -0.33996918805207621     
 -0.31115796301754928     
 -0.28514126172886756     
 -0.28897662901489940     
 -0.32016835042448738     
 -0.34115051094005494     
 -0.35000000134741005     
 -0.34999999776844531     
 -0.34999979173659784     
 -0.34998727744870223     
 -0.34939431212738065     
 -0.34009553104546691     
 -0.31143527878435773     
 -0.28543584228572444     
 -0.28927387095101254     
 -0.32041423037293332     
 -0.34129312438032378     
 -0.35000000135005244     
 -0.34999999776016333     
 -0.34999979182728580     
 -0.34998734549668725     
 -0.34940126063115345     
 -0.34020558925891831     
 -0.31169994066127837     
 -0.28572418902698271     
 -0.28956141803288366     
 -0.32063520683806634     
 -0.34140565782321658     
 -0.35000000135304865     
 -0.34999999775705598     
 -0.34999979233400597     
 -0.34998743495996298     
 -0.34940802939843280     
 -0.34030592355389633     
 -0.31195688667728283     
 -0.28600881416290652     
 -0.28984306257540138     
 -0.32084085325927025     
 -0.34150141339570289     
 -0.35000000135612880     
 -0.34999999775572421     
 -0.34999979297920553     
 -0.34998753044560316     
 -0.34941469718010315     
 -0.34040271655021065     
 -0.31221133236811166     
 -0.28629244447184032     
 -0.29012294854084292     
 -0.32104107891251438     
 -0.34159025078215510     
 -0.35000000135903025     
 -0.34999999775265100     
 -0.34999979349164895     
 -0.34998761923567573     
 -0.34942132539252874     
 -0.34050204266467443     
 -0.31246860887230787     
 -0.28657788483328261     
 -0.29040535859563582     
 -0.32124597221129259     
 -0.34168059007771245     
 -0.35000000136145276     
 -0.34999999774441859     
 -0.34999979359758732     
 -0.34998768738363228     
 -0.34942796785284924     
 -0.34061013824776826     
 -0.31273402500616621     
 -0.28686787480720466     
 -0.29069448852248891     
 -0.32146569103360384     
 -0.34178137030369171     
 -0.35000000136300236     
 -0.34999999772797491     
 -0.34999979301688205     
 -0.34998771652994293     
 -0.34943468652644027     
 -0.34073367649935710     
 -0.31301267787646675     
 -0.28716498048628519     
 -0.29099419727794612     
 -0.32172049771039296     
 -0.34190865874848542     
 -0.35000000136310189     
 -0.34999999878433197     
 -0.34999979255925023     
 -0.34998768044467443     
 -0.34944159504636108     
 -0.34087998721462720     
 -0.31330929265020341     
 -0.28747143697023764     
 -0.29130782942366379     
 -0.32199960633205160     
 -0.34207941613308368     
 -0.30000000211666816     
 -0.30000000013353290     
 -0.29999999682889483     
 -0.29999972049974127     
 -0.29999041318605563     
 -0.29985391962509211     
 -0.29937594912522209     
 -0.29888593603721653     
 -0.29904287397656748     
 -0.29961358251575476     
 -0.29989061662912508     
 -0.30000000212112687     
 -0.30000000121700832     
 -0.29999999460861626     
 -0.29999971521079760     
 -0.29999037055154470     
 -0.29985381691352148     
 -0.29937714665542792     
 -0.29888884951031230     
 -0.29904347715808810     
 -0.29961265903189505     
 -0.29989067238960060     
 -0.30000000212557199     
 -0.30000000121741072     
 -0.29999999348917539     
 -0.29999970886238586     
 -0.29999037109993715     
 -0.29985428722251645     
 -0.29937951830145654     
 -0.29889272600658445     
 -0.29904568044663304     
 -0.29961312976274651     
 -0.29989118282753824     
 -0.30000000213000133     
 -0.30000000121802534     
 -0.29999999346703804     
 -0.29999970764827055     
 -0.29999040047398051     
 -0.29985507040086651     
 -0.29938267111571615     
 -0.29889740279681115     
 -0.29904898400755053     
 -0.29961437072637553     
 -0.29989189654006804     
 -0.30000000213441957     
 -0.30000000121877585     
 -0.29999999345384359     
 -0.29999970800206865     
 -0.29999044874897274     
 -0.29985600455787337     
 -0.29938625902526234     
 -0.29890258034723338     
 -0.29905291591995542     
 -0.29961598469749939     
 -0.29989268953578890     
 -0.30000000213883032     
 -0.30000000121957376     
 -0.29999999344371875     
 -0.29999970851946978     
 -0.29999050259225746     
 -0.29985698557926060     
 -0.29938998179537235     
 -0.29890791539435763     
 -0.29905704967527219     
 -0.29961770668336596     
 -0.29989350101596607     
 -0.30000000214323974     
 -0.30000000122032194     
 -0.29999999343053574     
 -0.29999970888083044     
 -0.29999055176364453     
 -0.29985792258229577     
 -0.29939355533520190     
 -0.29891305026086673     
 -0.29906097417788102     
 -0.29961931492514071     
 -0.29989429250152944     
 -0.30000000214765093     
 -0.30000000122092790     
 -0.29999999340838412     
 -0.29999970876717236     
 -0.29999058639406018     
 -0.29985871030999850     
 -0.29939666692814587     
 -0.29891762101870684     
 -0.29906424897785872     
 -0.29962054432263696     
 -0.29989501772525462     
 -0.30000000215206524     
 -0.30000000122131448     
 -0.29999999337209227     
 -0.29999970786302232     
 -0.29999059416295670     
 -0.29985919073831913     
 -0.29939894623552571     
 -0.29892127722764400     
 -0.29906636458423091     
 -0.29961827567981802     
 -0.29989240684505702     
 -0.30000000215647837     
 -0.30000000230476048     
 -0.29999999440121605     
 -0.29999970696032091     
 -0.29999055909672012     
 -0.29985910812758754     
 -0.29939995365670569     
 -0.29892376830803491     
 -0.29906675042575837     
 -0.29961739053824266     
 -0.29988627748600633     
 -0.25000000606017969     
 -0.25000000450552012     
 -0.25000000698270336     
 -0.25000000460225047     
 -0.24999982643844329     
 -0.24999756006305543     
 -0.24998999782927916     
 -0.24998251967046350     
 -0.24998529750166451     
 -0.24999454428947801     
 -0.24999893725763730     
 -0.25000000606874534     
 -0.25000000559447566     
 -0.25000000481935170     
 -0.25000000129966726     
 -0.24999982199577686     
 -0.24999754386697756     
 -0.24998994496516747     
 -0.24998242887827429     
 -0.24998521482792352     
 -0.24999450595271661     
 -0.24999893229798853     
 -0.25000000607721351     
 -0.25000000560008723     
 -0.25000000373956199     
 -0.24999999584408675     
 -0.24999981477610336     
 -0.24999753136949307     
 -0.24998991705822929     
 -0.24998238110725288     
 -0.24998516631116954     
 -0.24999447922575646     
 -0.24999892671180721     
 -0.25000000608561262     
 -0.25000000560569119     
 -0.25000000374330189     
 -0.24999999473284176     
 -0.24999980900148105     
 -0.24999752385539636     
 -0.24998990855844319     
 -0.24998236429951989     
 -0.24998514363147595     
 -0.24999446316181476     
 -0.24999892383132835     
 -0.25000000609397061     
 -0.25000000561129238     
 -0.25000000374717329     
 -0.24999999471209444     
 -0.24999980778318340     
 -0.24999752038739362     
 -0.24998991144975127     
 -0.24998236542888097     
 -0.24998513617442039     
 -0.24999445342755169     
 -0.24999892259173664     
 -0.25000000610231699     
 -0.25000000561689395     
 -0.25000000375108822     
 -0.24999999469380521     
 -0.24999980772466554     
 -0.24999752224655514     
 -0.24998991924850883     
 -0.24998237252509181     
 -0.24998513384587537     
 -0.24999444582802360     
 -0.24999892199454252     
 -0.25000000611067880     
 -0.25000000562249947     
 -0.25000000375495074     
 -0.24999999467296996     
 -0.24999980759274099     
 -0.24999752426893002     
 -0.24998992779489482     
 -0.24998237503040463     
 -0.24998512673110743     
 -0.24999443626205958     
 -0.24999892109942126     
 -0.25000000611908452     