# vtk DataFile Version 2.0
3D Unstructured Grid of Linear Triangles
ASCII
DATASET UNSTRUCTURED_GRID
FIELD FieldData  1
TIME 1 1 double
       90005.71896
POINTS     1320 float
      0.00000000E+00  2.70000000E-02  1.00005200E-03
      5.00000000E-02  2.70000000E-02  1.00004767E-03
      1.00000000E-01  2.70000000E-02  1.00004550E-03
      1.50000000E-01  2.70000000E-02  1.00004550E-03
      2.00000000E-01  2.70000000E-02  1.00004550E-03
      2.50000000E-01  2.70000000E-02  1.00004550E-03
      3.00000000E-01  2.70000000E-02  1.00004550E-03
      3.50000000E-01  2.70000000E-02  1.00004550E-03
      4.00000000E-01  2.70000000E-02  1.00004550E-03
      4.50000000E-01  2.70000000E-02  1.00004550E-03
      5.00000000E-01  2.70000000E-02  1.00004550E-03
      0.00000000E+00  2.40000000E-02  1.00005200E-03
      5.00000000E-02  2.40000000E-02  1.00004875E-03
      1.00000000E-01  2.40000000E-02  1.00004333E-03
      1.50000000E-01  2.40000000E-02  1.00004225E-03
      2.00000000E-01  2.40000000E-02  1.00004225E-03
      2.50000000E-01  2.40000000E-02  1.00004225E-03
      3.00000000E-01  2.40000000E-02  1.00004225E-03
      3.50000000E-01  2.40000000E-02  1.00004225E-03
      4.00000000E-01  2.40000000E-02  1.00004225E-03
      4.50000000E-01  2.40000000E-02  1.00004225E-03
      5.00000000E-01  2.40000000E-02  1.00004333E-03
      0.00000000E+00  2.10000000E-02  1.00005200E-03
      5.00000000E-02  2.10000000E-02  1.00004875E-03
      1.00000000E-01  2.10000000E-02  1.00004225E-03
      1.50000000E-01  2.10000000E-02  1.00003683E-03
      2.00000000E-01  2.10000000E-02  1.00003575E-03
      2.50000000E-01  2.10000000E-02  1.00003575E-03
      3.00000000E-01  2.10000000E-02  1.00003575E-03
      3.50000000E-01  2.10000000E-02  1.00003575E-03
      4.00000000E-01  2.10000000E-02  1.00003575E-03
      4.50000000E-01  2.10000000E-02  1.00003575E-03
      5.00000000E-01  2.10000000E-02  1.00003683E-03
      0.00000000E+00  1.80000000E-02  1.00005200E-03
      5.00000000E-02  1.80000000E-02  1.00004875E-03
      1.00000000E-01  1.80000000E-02  1.00004225E-03
      1.50000000E-01  1.80000000E-02  1.00003575E-03
      2.00000000E-01  1.80000000E-02  1.00003033E-03
      2.50000000E-01  1.80000000E-02  1.00002925E-03
      3.00000000E-01  1.80000000E-02  1.00002925E-03
      3.50000000E-01  1.80000000E-02  1.00002925E-03
      4.00000000E-01  1.80000000E-02  1.00002925E-03
      4.50000000E-01  1.80000000E-02  1.00002925E-03
      5.00000000E-01  1.80000000E-02  1.00003033E-03
      0.00000000E+00  1.50000000E-02  1.00005200E-03
      5.00000000E-02  1.50000000E-02  1.00004875E-03
      1.00000000E-01  1.50000000E-02  1.00004225E-03
      1.50000000E-01  1.50000000E-02  1.00003575E-03
      2.00000000E-01  1.50000000E-02  1.00002925E-03
      2.50000000E-01  1.50000000E-02  1.00002383E-03
      3.00000000E-01  1.50000000E-02  1.00002275E-03
      3.50000000E-01  1.50000000E-02  1.00002275E-03
      4.00000000E-01  1.50000000E-02  1.00002275E-03
      4.50000000E-01  1.50000000E-02  1.00002275E-03
      5.00000000E-01  1.50000000E-02  1.00002383E-03
      0.00000000E+00  1.20000000E-02  1.00005200E-03
      5.00000000E-02  1.20000000E-02  1.00004875E-03
      1.00000000E-01  1.20000000E-02  1.00004225E-03
      1.50000000E-01  1.20000000E-02  1.00003575E-03
      2.00000000E-01  1.20000000E-02  1.00002925E-03
      2.50000000E-01  1.20000000E-02  1.00002275E-03
      3.00000000E-01  1.20000000E-02  1.00001733E-03
      3.50000000E-01  1.20000000E-02  1.00001625E-03
      4.00000000E-01  1.20000000E-02  1.00001625E-03
      4.50000000E-01  1.20000000E-02  1.00001625E-03
      5.00000000E-01  1.20000000E-02  1.00001733E-03
      0.00000000E+00  9.00000000E-03  1.00005200E-03
      5.00000000E-02  9.00000000E-03  1.00004875E-03
      1.00000000E-01  9.00000000E-03  1.00004225E-03
      1.50000000E-01  9.00000000E-03  1.00003575E-03
      2.00000000E-01  9.00000000E-03  1.00002925E-03
      2.50000000E-01  9.00000000E-03  1.00002275E-03
      3.00000000E-01  9.00000000E-03  1.00001625E-03
      3.50000000E-01  9.00000000E-03  1.00001083E-03
      4.00000000E-01  9.00000000E-03  1.00000975E-03
      4.50000000E-01  9.00000000E-03  1.00000975E-03
      5.00000000E-01  9.00000000E-03  1.00001083E-03
      0.00000000E+00  6.00000000E-03  1.00005200E-03
      5.00000000E-02  6.00000000E-03  1.00004875E-03
      1.00000000E-01  6.00000000E-03  1.00004225E-03
      1.50000000E-01  6.00000000E-03  1.00003575E-03
      2.00000000E-01  6.00000000E-03  1.00002925E-03
      2.50000000E-01  6.00000000E-03  1.00002275E-03
      3.00000000E-01  6.00000000E-03  1.00001625E-03
      3.50000000E-01  6.00000000E-03  1.00000975E-03
      4.00000000E-01  6.00000000E-03  1.00000433E-03
      4.50000000E-01  6.00000000E-03  1.00000325E-03
      5.00000000E-01  6.00000000E-03  1.00000433E-03
      0.00000000E+00  3.00000000E-03  1.00005200E-03
      5.00000000E-02  3.00000000E-03  1.00004875E-03
      1.00000000E-01  3.00000000E-03  1.00004225E-03
      1.50000000E-01  3.00000000E-03  1.00003575E-03
      2.00000000E-01  3.00000000E-03  1.00002925E-03
      2.50000000E-01  3.00000000E-03  1.00002275E-03
      3.00000000E-01  3.00000000E-03  1.00001625E-03
      3.50000000E-01  3.00000000E-03  1.00000975E-03
      4.00000000E-01  3.00000000E-03  1.00000325E-03
      4.50000000E-01  3.00000000E-03  9.96666667E-04
      5.00000000E-01  3.00000000E-03  9.96666667E-04
      0.00000000E+00  0.00000000E+00  1.00005200E-03
      5.00000000E-02  0.00000000E+00  1.00004983E-03
      1.00000000E-01  0.00000000E+00  1.00004333E-03
      1.50000000E-01  0.00000000E+00  1.00003683E-03
      2.00000000E-01  0.00000000E+00  1.00003033E-03
      2.50000000E-01  0.00000000E+00  1.00002383E-03
      3.00000000E-01  0.00000000E+00  1.00001733E-03
      3.50000000E-01  0.00000000E+00  1.00001083E-03
      4.00000000E-01  0.00000000E+00  1.00000433E-03
      4.50000000E-01  0.00000000E+00  9.96666667E-04
      5.00000000E-01  0.00000000E+00  9.90000000E-04
      0.00000000E+00  2.70000000E-02 -4.89999480E-02
      5.00000000E-02  2.70000000E-02 -4.89999523E-02
      1.00000000E-01  2.70000000E-02 -4.89999545E-02
      1.50000000E-01  2.70000000E-02 -4.89999545E-02
      2.00000000E-01  2.70000000E-02 -4.89999545E-02
      2.50000000E-01  2.70000000E-02 -4.89999545E-02
      3.00000000E-01  2.70000000E-02 -4.89999545E-02
      3.50000000E-01  2.70000000E-02 -4.89999545E-02
      4.00000000E-01  2.70000000E-02 -4.89999545E-02
      4.50000000E-01  2.70000000E-02 -4.89999545E-02
      5.00000000E-01  2.70000000E-02 -4.89999545E-02
      0.00000000E+00  2.40000000E-02 -4.89999480E-02
      5.00000000E-02  2.40000000E-02 -4.89999512E-02
      1.00000000E-01  2.40000000E-02 -4.89999567E-02
      1.50000000E-01  2.40000000E-02 -4.89999578E-02
      2.00000000E-01  2.40000000E-02 -4.89999578E-02
      2.50000000E-01  2.40000000E-02 -4.89999578E-02
      3.00000000E-01  2.40000000E-02 -4.89999578E-02
      3.50000000E-01  2.40000000E-02 -4.89999578E-02
      4.00000000E-01  2.40000000E-02 -4.89999578E-02
      4.50000000E-01  2.40000000E-02 -4.89999578E-02
      5.00000000E-01  2.40000000E-02 -4.89999567E-02
      0.00000000E+00  2.10000000E-02 -4.89999480E-02
      5.00000000E-02  2.10000000E-02 -4.89999512E-02
      1.00000000E-01  2.10000000E-02 -4.89999578E-02
      1.50000000E-01  2.10000000E-02 -4.89999632E-02
      2.00000000E-01  2.10000000E-02 -4.89999642E-02
      2.50000000E-01  2.10000000E-02 -4.89999642E-02
      3.00000000E-01  2.10000000E-02 -4.89999642E-02
      3.50000000E-01  2.10000000E-02 -4.89999642E-02
      4.00000000E-01  2.10000000E-02 -4.89999642E-02
      4.50000000E-01  2.10000000E-02 -4.89999642E-02
      5.00000000E-01  2.10000000E-02 -4.89999632E-02
      0.00000000E+00  1.80000000E-02 -4.89999480E-02
      5.00000000E-02  1.80000000E-02 -4.89999512E-02
      1.00000000E-01  1.80000000E-02 -4.89999578E-02
      1.50000000E-01  1.80000000E-02 -4.89999642E-02
      2.00000000E-01  1.80000000E-02 -4.89999697E-02
      2.50000000E-01  1.80000000E-02 -4.89999708E-02
      3.00000000E-01  1.80000000E-02 -4.89999708E-02
      3.50000000E-01  1.80000000E-02 -4.89999708E-02
      4.00000000E-01  1.80000000E-02 -4.89999708E-02
      4.50000000E-01  1.80000000E-02 -4.89999708E-02
      5.00000000E-01  1.80000000E-02 -4.89999697E-02
      0.00000000E+00  1.50000000E-02 -4.89999480E-02
      5.00000000E-02  1.50000000E-02 -4.89999512E-02
      1.00000000E-01  1.50000000E-02 -4.89999578E-02
      1.50000000E-01  1.50000000E-02 -4.89999642E-02
      2.00000000E-01  1.50000000E-02 -4.89999708E-02
      2.50000000E-01  1.50000000E-02 -4.89999762E-02
      3.00000000E-01  1.50000000E-02 -4.89999772E-02
      3.50000000E-01  1.50000000E-02 -4.89999772E-02
      4.00000000E-01  1.50000000E-02 -4.89999772E-02
      4.50000000E-01  1.50000000E-02 -4.89999772E-02
      5.00000000E-01  1.50000000E-02 -4.89999762E-02
      0.00000000E+00  1.20000000E-02 -4.89999480E-02
      5.00000000E-02  1.20000000E-02 -4.89999512E-02
      1.00000000E-01  1.20000000E-02 -4.89999578E-02
      1.50000000E-01  1.20000000E-02 -4.89999642E-02
      2.00000000E-01  1.20000000E-02 -4.89999708E-02
      2.50000000E-01  1.20000000E-02 -4.89999772E-02
      3.00000000E-01  1.20000000E-02 -4.89999827E-02
      3.50000000E-01  1.20000000E-02 -4.89999838E-02
      4.00000000E-01  1.20000000E-02 -4.89999838E-02
      4.50000000E-01  1.20000000E-02 -4.89999838E-02
      5.00000000E-01  1.20000000E-02 -4.89999827E-02
      0.00000000E+00  9.00000000E-03 -4.89999480E-02
      5.00000000E-02  9.00000000E-03 -4.89999512E-02
      1.00000000E-01  9.00000000E-03 -4.89999578E-02
      1.50000000E-01  9.00000000E-03 -4.89999642E-02
      2.00000000E-01  9.00000000E-03 -4.89999708E-02
      2.50000000E-01  9.00000000E-03 -4.89999772E-02
      3.00000000E-01  9.00000000E-03 -4.89999838E-02
      3.50000000E-01  9.00000000E-03 -4.89999892E-02
      4.00000000E-01  9.00000000E-03 -4.89999903E-02
[...]
POINT_DATA     1320
SCALARS pressure float
LOOKUP_TABLE default
 -0.47903416280116934     
 -0.46949243049098732     
 -0.40655044670314189     
 -0.34517653569705592     
 -0.30684150569623725     
 -0.28496608535317647     
 -0.27449563239734154     
 -0.26743910552975730     
 -0.26346160964507487     
 -0.26120330044081647     
 -0.26134624348705765     
 -0.48844410126463023     
 -0.47830287697149970     
 -0.41352105757859542     
 -0.35045199880847966     
 -0.31110714874234158     
 -0.28867989727834270     
 -0.28499434265342805     
 -0.27738772434788722     
 -0.27309685869014727     
 -0.27064542974447581     
 -0.26276655344971289     
 -0.48872280516904471     
 -0.47862580094051682     
 -0.41382057016272866     
 -0.35072715346397076     
 -0.31137658341243230     
 -0.28894785429458020     
 -0.28586076198718613     
 -0.27825405773039708     
 -0.27396310402361190     
 -0.27151296384097062     
 -0.26289399448437539     
 -0.48869803140505813     
 -0.47864307760068997     
 -0.41383311311404031     
 -0.35073088988237405     
 -0.31138215615231979     
 -0.28895684006376904     
 -0.28592055627002083     
 -0.27831795142474153     
 -0.27402969843778779     
 -0.27158148271725191     
 -0.26290099417102825     
 -0.48866412269022763     
 -0.47864936826386312     
 -0.41383356216609030     
 -0.35072022118913498     
 -0.31137065768224376     
 -0.28894673234302864     
 -0.28591499975005163     
 -0.27831354223262778     
 -0.27402597613542512     
 -0.27157812908947593     
 -0.26289696382784528     
 -0.48863023021424223     
 -0.47865520591728183     
 -0.41383352856951189     
 -0.35070883797149727     
 -0.31135812143536207     
 -0.28893530332995571     
 -0.28590395096918225     
 -0.27830308806758342     
 -0.27401581313208517     
 -0.27156804130519402     
 -0.26289196398970505     
 -0.48859644335798108     
 -0.47866127597723862     
 -0.41383373388883388     
 -0.35069778833260529     
 -0.31134607902675560     
 -0.28892451319036383     
 -0.28588947266566628     
 -0.27828884431620560     
 -0.27400159395955664     
 -0.27155370053688155     
 -0.26288727164399933     
 -0.48857181733177496     
 -0.47867314948885248     
 -0.41384029829065633     
 -0.35069439165768523     
 -0.31134326484222719     
 -0.28892420378196171     
 -0.28583823719043561     
 -0.27823613506997913     
 -0.27394764214740108     
 -0.27149878246880593     
 -0.26288697359957081     
 -0.48884809701237542     
 -0.47884491573883053     
 -0.41399827322996058     
 -0.35083640040574093     
 -0.31148413995622987     
 -0.28906713805583550     
 -0.28533534637032021     
 -0.27773329341569236     
 -0.27344356264588571     
 -0.27099201294918640     
 -0.26293288677073218     
 -0.49854526911824404     
 -0.48359101782272290     
 -0.41778039304842590     
 -0.35373071692267855     
 -0.31385575783414926     
 -0.29114808522532187     
 -0.27937676665405792     
 -0.27205121209501171     
 -0.26792255895277095     
 -0.26556401011518121     
 -0.26351233152914705     
 -0.47322840286624812     
 -0.44766384106656149     
 -0.38311288409940425     
 -0.32230192547017705     
 -0.28312392509514744     
 -0.26015969593458266     
 -0.24690391420049582     
 -0.23929832432413339     
 -0.23503711271714775     
 -0.23284419126283165     
 -0.23219763484496939     
 -0.47319408287864795     
 -0.44766895693160635     
 -0.38311597080438825     
 -0.32230037371606490     
 -0.28312319426930155     
 -0.26016041772252502     
 -0.24690726544114763     
 -0.23930212304021564     
 -0.23504114298457168     
 -0.23284837013086676     
 -0.23219836338748054     
 -0.47315970245804728     
 -0.44767257864512883     
 -0.38311785942681764     
 -0.32229774377055581     
 -0.28312148379846247     
 -0.26016027851521306     
 -0.24690839538927270     
 -0.23930377769888436     
 -0.23504307542821859     
 -0.23285045607022070     
 -0.23219883245692227     
 -0.47312602975223872     
 -0.44767590683181269     
 -0.38311963296830370     
 -0.32229495219382193     
 -0.28311955997783111     
 -0.26015990768171088     
 -0.24690902748317767     
 -0.23930492465823122     
 -0.23504449420694432     
 -0.23285201317974799     
 -0.23219920996290949     
 -0.47309282306682177     
 -0.44767910850806464     
 -0.38312139338647938     
 -0.32229212228822668     
 -0.28311757245814068     
 -0.26015946108133486     
 -0.24690954681616292     
 -0.23930595529097878     
 -0.23504579421300370     
 -0.23285344398194543     
 -0.23219955801059342     
 -0.47305977102463492     
 -0.44768226964357172     
 -0.38312315268411040     
 -0.32228928171627080     
 -0.28311556670163129     
 -0.26015899515269780     
 -0.24691003982944515     
 -0.23930695814935915     
 -0.23504706587620847     
 -0.23285484429164935     
 -0.23219989614580627     
 -0.47302655948878658     
 -0.44768547137259052     
 -0.38312491693434536     
 -0.32228645073670392     
 -0.28311357926056541     
 -0.26015854935154553     
 -0.24691055033318365     
 -0.23930797515959296     
 -0.23504835020874276     
 -0.23285625865513906     
 -0.23220023620273580     
 -0.47299288083232333     
 -0.44768879983847176     
 -0.38312669701300495     
 -0.32228365518399937     
 -0.28311165395362348     
 -0.26015816461608537     
 -0.24691108777061763     
 -0.23930901648622840     
 -0.23504965368395267     
 -0.23285769255014613     
 -0.23220058363311838     
 -0.47295854316521907     
 -0.44769240733933202     
 -0.38312856702032017     
 -0.32228098219067364     
 -0.28310989708899520     
 -0.26015790566103070     
 -0.24691147570523370     
 -0.23930989523593826     
 -0.23505078894914366     
 -0.23285694417815289     
 -0.23219910382295320     
 -0.47292409614315495     
 -0.44769690811766788     
 -0.38313105763539534     
 -0.32227889813838090     
 -0.28310871275748040     
 -0.26015818161199755     
 -0.24691075129181306     
 -0.23930966814589524     
 -0.23505082422797094     
 -0.23285714547259040     
 -0.23219590225432887     
 -0.42162333122180884     
 -0.39870814983858821     
 -0.34395955992246585     
 -0.29187710038088716     
 -0.25655965962382282     
 -0.23487732582940660     
 -0.22192017111631016     
 -0.21430218284579786     
 -0.20998412277406800     
 -0.20781258593385182     
 -0.20725746720215141     
 -0.42159130470896761     
 -0.39871134991334983     
 -0.34396156364621144     
 -0.29187531679416062     
 -0.25655785900743910     
 -0.23487647109677329     
 -0.22192005163852718     
 -0.21430251495849739     
 -0.20998472896725195     
 -0.20781336984158127     
 -0.20725741751175167     
 -0.42156025069262582     
 -0.39871425750153255     
 -0.34396355862751304     
 -0.29187354608097393     
 -0.25655605928962177     
 -0.23487561374968607     
 -0.22191993040443478     
 -0.21430284668502741     
 -0.20998533520875701     
 -0.20781414307861892     
 -0.20725738518883924     
 -0.42152988619041137     
 -0.39871696050072386     
 -0.34396554761069337     
 -0.29187178737676550     
 -0.25655426137468679     
 -0.23487475504622590     
 -0.22191980847395687     
 -0.21430317863668327     
 -0.20998594193081058     
 -0.20781490925197590     
 -0.20725736662843386     
 -0.42149993294614191     
 -0.39871954207868882     
 -0.34396753285913090     
 -0.29187003471758949     
 -0.25655246604379667     
 -0.23487389587550819     
 -0.22191968605807227     
 -0.21430351064801006     
 -0.20998654885044066     
 -0.20781567113400248     
 -0.20725735620604904     
 -0.42147011593965200     
 -0.39872208325269276     
 -0.34396951758316718     
 -0.29186828342147120     
 -0.25655067121349262     
 -0.23487303822351474     
 -0.22191956392358822     
 -0.21430384265733698     
 -0.20998715580505262     
 -0.20781643154028351     
 -0.20725734844851448     
 -0.42144016132955986     
 -0.39872466437522924     
 -0.34397150504755841     
 -0.29186652942805708     
 -0.25654887584801805     
 -0.23487218133756624     
 -0.22191944378276099     
 -0.21430417508883701     
 -0.20998776266750863     
 -0.20781719329451281     
 -0.20725733793401405     
 -0.42140979438350828     
 -0.39872736659979302     
 -0.34397349843136343     
 -0.29186476861660388     
 -0.25654707935312565     
 -0.23487132532530608     
 -0.22191932452496582     
 -0.21430450917712476     
 -0.20998836966230688     
 -0.20781795914252910     
 -0.20725731919215903     
 -0.42137873741595916     
 -0.39873027336129807     
 -0.34397550068838240     
 -0.29186299671951188     
 -0.25654528098133378     
 -0.23487047056942434     
 -0.22191920566692305     
 -0.21430484315403869     
 -0.20998897755729565     
 -0.20781733652190448     
 -0.20725596791519135     
 -0.42134670781949279     
 -0.39873347280283489     
 -0.34397751506583712     
 -0.29186120979888164     
 -0.25654348025207796     
 -0.23486961774506968     
 -0.22191908730586299     
 -0.21430517631470622     
 -0.20998958456940348     
 -0.20781812029167707     
 -0.20725328038398921     
 -0.37310034194471620     
 -0.35513023155237594     
 -0.31202633674616492     
 -0.26877191791960903     
 -0.23742198150893135     
 -0.21712870146110694     
 -0.20451279559139618     
 -0.19687239772324955     
 -0.19245044911983503     
 -0.19019963561519623     
 -0.18958115837442222     
 -0.37307485601781781     
 -0.35513233313230685     
 -0.31202859360272706     
 -0.26877128218735169     
 -0.23742065955722066     
 -0.21712777538299763     
 -0.20451235714809343     
 -0.19687231999391136     
 -0.19245061680262351     
 -0.19019997018822829     
 -0.18958075545004432     
 -0.37305009949364998     
 -0.35513420247868088     
 -0.31203083304221746     
 -0.26877065249285031     
 -0.23741934024321287     
 -0.21712684911707539     
 -0.20451191882376119     
 -0.19687224326033045     
 -0.19245078583541275     
 -0.19020029676737010     
 -0.18958036980515847     
 -0.37302586079467126     
 -0.35513590907897274     
 -0.31203306017093990     
 -0.26877002946321416     
 -0.23741802374327428     
 -0.21712592317425738     
 -0.20451148098081115     
 -0.19687216759984391     
 -0.19245095615413327     
 -0.19020061805984390     
 -0.18957999779389020     
 -0.37300193196893922     
 -0.35513751880139399     
 -0.31203527979189072     
 -0.26876940963139950     
 -0.23741671007017370     
 -0.21712499768504731     
 -0.20451104336664794     
 -0.19687209252429630     
 -0.19245112717316556     
 -0.19020093614493022     
 -0.18957963393337121     
 -0.37297810761600880     
 -0.35513909590557302     
 -0.31203749751868493     
 -0.26876879049511582     
 -0.23741539696468730     
 -0.21712407347205942     
 -0.20451060607878599     
 -0.19687201757581921     
 -0.19245129835693120     
 -0.19020125308773586     
 -0.18957927279637593     
 -0.37295418326786128     
 -0.35514070413870158     
 -0.31203971901422867     
 -0.26876817002806958     
 -0.23741408292465765     
 -0.21712314931050661     
 -0.20451016987202544     
 -0.19687194262328281     
 -0.19245146917453046     
 -0.19020157093441686     
 -0.18957890897059904     
 -0.37292995375555615     
 -0.35514240782524992     
 -0.31204194988957218     
 -0.26876754619177889     
 -0.23741276682453863     
 -0.21712222465771835     
 -0.20450973352804488     
 -0.19687186818892183     
 -0.19245163941817162     
 -0.19020189174403740     
 -0.18957853702416391     
 -0.37290521157405754     
 -0.35514427295858497     
 -0.31204419559216856     
 -0.26876691691549826     
 -0.23741144753530830     
 -0.21712129931829777     
 -0.20450929649569263     
 -0.19687179284741546     
 -0.19245180950036644     
 -0.19020120538670879     
 -0.18957718416858524     
 -0.37287974535345897     
 -0.35514636911193709     
 -0.31204646180757256     
 -0.26876628048279944     
 -0.23741012431128919     
 -0.21712037351139996     
 -0.20450885899690410     
 -0.19687171629821021     
 -0.19245197835293940     
 -0.19020154046903398     
 -0.18957484661406368     
 -0.32712917689118026     
 -0.31459590565675494     
 -0.28337952978609021     
 -0.24923474286895714     
 -0.22226329659548524     
 -0.20364474210419825     
 -0.19152208241887561     
 -0.18392555818798062     
 -0.17941614531568850     
 -0.17707594754513720     
 -0.17640306854806856     
 -0.32711076882631240     
 -0.31459679009679792     
 -0.28338185461196547     
 -0.24923545819236839     
 -0.22226295831979379     
 -0.20364425217872309     
 -0.19152175791485207     
 -0.18392543843831366     
 -0.17941619946057355     
 -0.17707613538222608     
 -0.17640249471536293     
 -0.32709286463358561     
 -0.31459751203344199     
 -0.28338415704230097     
 -0.24923616774994217     
 -0.22226261935877256     
 -0.20364376154330080     
 -0.19152143299735186     
 -0.18392531887469196     
 -0.17941625402174505     
 -0.17707631420498443     
 -0.17640193792053174     
 -0.32707531859775352     
 -0.31459812012888788     
 -0.28338644358631426     
 -0.24923687550259419     
 -0.22226228070796664     
 -0.20364327070798113     
 -0.19152110801518743     
 -0.18392519963582679     
 -0.17941630903061062     
 -0.17707648684014696     
 -0.17640139441945402     
 -0.32705798748563408     
 -0.31459866022027444     
 -0.28338872038542878     
 -0.24923758159949438     
 -0.22226194325092558     
 -0.20364277991089116     
 -0.19152078288849750     
 -0.18392508049553599     
 -0.17941636420686538     
 -0.17707665569717798     
 -0.17640085883613257     
 -0.32704072995235717     
 -0.31459917700337225     
 -0.28339099432561576     
 -0.24923828708039894     
 -0.22226160589501176     
 -0.20364228995726236     
 -0.19152045781209595     
 -0.18392496125045230     
 -0.17941641931324429     
 -0.17707682316256931     
 -0.17640032583763482     
 -0.32702340534648805     
 -0.31459971479922139     
 -0.28339327233091643     
 -0.24923899342827902     
 -0.22226126820809206     
 -0.20364179996999357     
 -0.19152013349853375     
 -0.18392484194886935     
 -0.17941647411472506     
 -0.17707699160042631     
 -0.17639979010217965     
 -0.32700587249047403     
 -0.31460031831162183     
 -0.28339556129223098     
 -0.24923970212358446     
 -0.22226093008375858     
 -0.20364130963098753     
 -0.19151980910024427     
 -0.18392472314928657     
 -0.17941652862737770     
 -0.17707716339061849     
 -0.17639924629012826     
 -0.32698798846311350     
 -0.31460103338426548     
 -0.28339786798527183     
 -0.24924041463177515     
 -0.22226059140568921     
 -0.20364081890807689     
 -0.19151948430595345     
 -0.18392460390790710     
 -0.17941658336469921     
 -0.17707656110573533     
 -0.17639793778718105     
 -0.32696960752297394     
 -0.31460190855308096     
 -0.28340019948630413     
 -0.24924113274858239     
 -0.22226025237007785     
 -0.20364032812358307     
 -0.19151915946155251     
 -0.18392448422043872     
 -0.17941663776020042     
 -0.17707674869314319     
 -0.17639586077820704     
 -0.28141625130057041     
 -0.27375330375354956     
 -0.25372371090836227     
 -0.22937808109691410     
 -0.20793964930980596     
 -0.19184577462923111     
 -0.18071719221885277     
 -0.17343676755419596     
 -0.16898270214045211     
 -0.16663296377071840     
 -0.16597897109775006     
 -0.28140416244756383     
 -0.27375310458043811     
 -0.25372554561885852     
 -0.22937994067667539     
 -0.20794073440853958     
 -0.19184633459006525     
 -0.18071754248413302     
 -0.17343707634305305     
 -0.16898304225665997     
 -0.16663336001618295     
 -0.16597851558339155     
 -0.28139238624799995     
 -0.27375280774477656     
 -0.25372736234873661     
 -0.22938178166484061     
 -0.20794180921629030     
 -0.19184688952813014     
 -0.18071789026959478     
 -0.17343738403527309     
 -0.16898338180205505     
 -0.16663374576449005     
 -0.16597807696466224     
 -0.28138083280199122     
 -0.27375244276196542     
 -0.25372916630340969     
 -0.22938361210468602     
 -0.20794287767295910     
 -0.19184744122871314     
 -0.18071823648495464     
 -0.17343769107174983     
 -0.16898372101025283     
 -0.16663412417277904     
 -0.16597765142913184     
 -0.28136941352027994     
 -0.27375203692803651     
 -0.25373096216149771     
 -0.22938543567291630     
 -0.20794394356018056     
 -0.19184799117986373     
 -0.18071858162402976     
 -0.17343799756940889     
 -0.16898405986391624     
 -0.16663449804617345     
 -0.16597723360989206     
 -0.28135804103930223     
 -0.27375161680921833     
 -0.25373275537309525     
 -0.22938725702357565     
 -0.20794500850534445     
 -0.19184854145087391     
 -0.18071892644369414     
 -0.17343830366701574     
 -0.16898439838761459     
 -0.16663487016159773     
 -0.16597681816962834     
 -0.28134662845668656     
 -0.27375120872634989     
 -0.25373455141430001     
 -0.22938908130450264     
 -0.20794607485713576     
 -0.19184909240392009     
 -0.18071927219195319     
 -0.17343860972999209     
 -0.16898473660787283     
 -0.16663524327184898     
 -0.16597639977900963     
 -0.28133508852721134     
 -0.27375083922361260     
 -0.25373635573582870     
 -0.22939091367477407     
 -0.20794714532377873     
 -0.19184964496578163     
 -0.18071961863294395     
 -0.17343891658168256     
 -0.16898507476863556     
 -0.16663562014419955     
 -0.16597597309009973     
 -0.28132333286663463     
 -0.27375053553467388     
 -0.25373817370084650     
 -0.22939275930931124     
 -0.20794822260857915     
 -0.19185020034496361     
 -0.18071996603325988     
 -0.17343922368634540     
 -0.16898541355313343     
 -0.16663533115926796     
 -0.16597487511075659     
 -0.28131127134396328     
 -0.27375032689334100     
 -0.25374001110122185     
 -0.22939462380466505     
 -0.20794930974302575     
 -0.19185076008481639     
 -0.18072031528124677     
 -0.17343953138115670     
 -0.16898575270944563     
 -0.16663572588610834     
 -0.16597310206742907     
 -0.23378676743295970     
 -0.22985121868370056     
 -0.21920833946354826     
 -0.20481418682470742     
 -0.19042556542442740     
 -0.17837438008460171     
 -0.16931882559747438     
 -0.16303031521541222     
 -0.15903135081825931     
 -0.15690706551389524     
 -0.15644104716414309     
 -0.23377965518002355     
 -0.22985030426370490     
 -0.21920911208026664     
 -0.20481620975397488     
 -0.19042789039877250     
 -0.17837647985205241     
 -0.16932060734871951     
 -0.16303185328331482     
 -0.15903274655542965     
 -0.15690840309316717     
 -0.15644135121222169     
 -0.23377270935013733     
 -0.22984934227807929     
 -0.21920988076116069     
 -0.20481821183412280     
 -0.19043019101309624     
 -0.17837855998376995     
 -0.16932237482935053     
 -0.16303338098325215     
 -0.15903413405496467     
 -0.15690972169364301     
 -0.15644166783493008     
 -0.23376588275724777     
 -0.22984834764345360     
 -0.21921064673725316     
 -0.20482020252119981     
 -0.19043247576909417     
 -0.17838062682908426     
 -0.16932413262168669     
 -0.16303490163122608     
 -0.15903551591612253     
 -0.15691102702652304     
 -0.15644199448333737     
 -0.23375912841840404     
 -0.22984733342844446     
 -0.21921141048974283     
 -0.20482218551434217     
 -0.19043475278817776     
 -0.17838268615395725     
 -0.16932588458607326     
 -0.16303641796730539     
 -0.15903689427244042     
 -0.15691232423423540     
 -0.15644232687937573     
 -0.23375239997857242     
 -0.22984631228352306     
 -0.21921217338196305     
 -0.20482416576323628     
 -0.19043702722354006     
 -0.17838474448569117     
 -0.16932763490589120     
 -0.16303793274152462     
 -0.15903827128941334     
 -0.15691361840830467     
 -0.15644266074137553     
 -0.23374565133827821     
 -0.22984529672095030     
 -0.21921293679948040     
 -0.20482614885160277     
 -0.19043930520287830     
 -0.17838680603900067     
 -0.16932938840254949     
 -0.16303944898315872     
 -0.15903964913452037     
 -0.15691491461166518     
 -0.15644299178720628     
 -0.23373883621748906     