# vtk DataFile Version 2.0
3D Unstructured Grid of Linear Triangles
ASCII
DATASET UNSTRUCTURED_GRID
FIELD FieldData  1
TIME 1 1 double
       97205.71896
POINTS     1320 float
      0.00000000E+00  2.70000000E-02  1.00005200E-03
      5.00000000E-02  2.70000000E-02  1.00004767E-03
      1.00000000E-01  2.70000000E-02  1.00004550E-03
      1.50000000E-01  2.70000000E-02  1.00004550E-03
      2.00000000E-01  2.70000000E-02  1.00004550E-03
      2.50000000E-01  2.70000000E-02  1.00004550E-03
      3.00000000E-01  2.70000000E-02  1.00004550E-03
      3.50000000E-01  2.70000000E-02  1.00004550E-03
      4.00000000E-01  2.70000000E-02  1.00004550E-03
      4.50000000E-01  2.70000000E-02  1.00004550E-03
      5.00000000E-01  2.70000000E-02  1.00004550E-03
      0.00000000E+00  2.40000000E-02  1.00005200E-03
      5.00000000E-02  2.40000000E-02  1.00004875E-03
      1.00000000E-01  2.40000000E-02  1.00004333E-03
      1.50000000E-01  2.40000000E-02  1.00004225E-03
      2.00000000E-01  2.40000000E-02  1.00004225E-03
      2.50000000E-01  2.40000000E-02  1.00004225E-03
      3.00000000E-01  2.40000000E-02  1.00004225E-03
      3.50000000E-01  2.40000000E-02  1.00004225E-03
      4.00000000E-01  2.40000000E-02  1.00004225E-03
      4.50000000E-01  2.40000000E-02  1.00004225E-03
      5.00000000E-01  2.40000000E-02  1.00004333E-03
      0.00000000E+00  2.10000000E-02  1.00005200E-03
      5.00000000E-02  2.10000000E-02  1.00004875E-03
      1.00000000E-01  2.10000000E-02  1.00004225E-03
      1.50000000E-01  2.10000000E-02  1.00003683E-03
      2.00000000E-01  2.10000000E-02  1.00003575E-03
      2.50000000E-01  2.10000000E-02  1.00003575E-03
      3.00000000E-01  2.10000000E-02  1.00003575E-03
      3.50000000E-01  2.10000000E-02  1.00003575E-03
      4.00000000E-01  2.10000000E-02  1.00003575E-03
      4.50000000E-01  2.10000000E-02  1.00003575E-03
      5.00000000E-01  2.10000000E-02  1.00003683E-03
      0.00000000E+00  1.80000000E-02  1.00005200E-03
      5.00000000E-02  1.80000000E-02  1.00004875E-03
      1.00000000E-01  1.80000000E-02  1.00004225E-03
      1.50000000E-01  1.80000000E-02  1.00003575E-03
      2.00000000E-01  1.80000000E-02  1.00003033E-03
      2.50000000E-01  1.80000000E-02  1.00002925E-03
      3.00000000E-01  1.80000000E-02  1.00002925E-03
      3.50000000E-01  1.80000000E-02  1.00002925E-03
      4.00000000E-01  1.80000000E-02  1.00002925E-03
      4.50000000E-01  1.80000000E-02  1.00002925E-03
      5.00000000E-01  1.80000000E-02  1.00003033E-03
      0.00000000E+00  1.50000000E-02  1.00005200E-03
      5.00000000E-02  1.50000000E-02  1.00004875E-03
      1.00000000E-01  1.50000000E-02  1.00004225E-03
      1.50000000E-01  1.50000000E-02  1.00003575E-03
      2.00000000E-01  1.50000000E-02  1.00002925E-03
      2.50000000E-01  1.50000000E-02  1.00002383E-03
      3.00000000E-01  1.50000000E-02  1.00002275E-03
      3.50000000E-01  1.50000000E-02  1.00002275E-03
      4.00000000E-01  1.50000000E-02  1.00002275E-03
      4.50000000E-01  1.50000000E-02  1.00002275E-03
      5.00000000E-01  1.50000000E-02  1.00002383E-03
      0.00000000E+00  1.20000000E-02  1.00005200E-03
      5.00000000E-02  1.20000000E-02  1.00004875E-03
      1.00000000E-01  1.20000000E-02  1.00004225E-03
      1.50000000E-01  1.20000000E-02  1.00003575E-03
      2.00000000E-01  1.20000000E-02  1.00002925E-03
      2.50000000E-01  1.20000000E-02  1.00002275E-03
      3.00000000E-01  1.20000000E-02  1.00001733E-03
      3.50000000E-01  1.20000000E-02  1.00001625E-03
      4.00000000E-01  1.20000000E-02  1.00001625E-03
      4.50000000E-01  1.20000000E-02  1.00001625E-03
      5.00000000E-01  1.20000000E-02  1.00001733E-03
      0.00000000E+00  9.00000000E-03  1.00005200E-03
      5.00000000E-02  9.00000000E-03  1.00004875E-03
      1.00000000E-01  9.00000000E-03  1.00004225E-03
      1.50000000E-01  9.00000000E-03  1.00003575E-03
      2.00000000E-01  9.00000000E-03  1.00002925E-03
      2.50000000E-01  9.00000000E-03  1.00002275E-03
      3.00000000E-01  9.00000000E-03  1.00001625E-03
      3.50000000E-01  9.00000000E-03  1.00001083E-03
      4.00000000E-01  9.00000000E-03  1.00000975E-03
      4.50000000E-01  9.00000000E-03  1.00000975E-03
      5.00000000E-01  9.00000000E-03  1.00001083E-03
      0.00000000E+00  6.00000000E-03  1.00005200E-03
      5.00000000E-02  6.00000000E-03  1.00004875E-03
      1.00000000E-01  6.00000000E-03  1.00004225E-03
      1.50000000E-01  6.00000000E-03  1.00003575E-03
      2.00000000E-01  6.00000000E-03  1.00002925E-03
      2.50000000E-01  6.00000000E-03  1.00002275E-03
      3.00000000E-01  6.00000000E-03  1.00001625E-03
      3.50000000E-01  6.00000000E-03  1.00000975E-03
      4.00000000E-01  6.00000000E-03  1.00000433E-03
      4.50000000E-01  6.00000000E-03  1.00000325E-03
      5.00000000E-01  6.00000000E-03  1.00000433E-03
      0.00000000E+00  3.00000000E-03  1.00005200E-03
      5.00000000E-02  3.00000000E-03  1.00004875E-03
      1.00000000E-01  3.00000000E-03  1.00004225E-03
      1.50000000E-01  3.00000000E-03  1.00003575E-03
      2.00000000E-01  3.00000000E-03  1.00002925E-03
      2.50000000E-01  3.00000000E-03  1.00002275E-03
      3.00000000E-01  3.00000000E-03  1.00001625E-03
      3.50000000E-01  3.00000000E-03  1.00000975E-03
      4.00000000E-01  3.00000000E-03  1.00000325E-03
      4.50000000E-01  3.00000000E-03  9.96666667E-04
      5.00000000E-01  3.00000000E-03  9.96666667E-04
      0.00000000E+00  0.00000000E+00  1.00005200E-03
      5.00000000E-02  0.00000000E+00  1.00004983E-03
      1.00000000E-01  0.00000000E+00  1.00004333E-03
      1.50000000E-01  0.00000000E+00  1.00003683E-03
      2.00000000E-01  0.00000000E+00  1.00003033E-03
      2.50000000E-01  0.00000000E+00  1.00002383E-03
      3.00000000E-01  0.00000000E+00  1.00001733E-03
      3.50000000E-01  0.00000000E+00  1.00001083E-03
      4.00000000E-01  0.00000000E+00  1.00000433E-03
      4.50000000E-01  0.00000000E+00  9.96666667E-04
      5.00000000E-01  0.00000000E+00  9.90000000E-04
      0.00000000E+00  2.70000000E-02 -4.89999480E-02
      5.00000000E-02  2.70000000E-02 -4.89999523E-02
      1.00000000E-01  2.70000000E-02 -4.89999545E-02
      1.50000000E-01  2.70000000E-02 -4.89999545E-02
      2.00000000E-01  2.70000000E-02 -4.89999545E-02
      2.50000000E-01  2.70000000E-02 -4.89999545E-02
      3.00000000E-01  2.70000000E-02 -4.89999545E-02
      3.50000000E-01  2.70000000E-02 -4.89999545E-02
      4.00000000E-01  2.70000000E-02 -4.89999545E-02
      4.50000000E-01  2.70000000E-02 -4.89999545E-02
      5.00000000E-01  2.70000000E-02 -4.89999545E-02
      0.00000000E+00  2.40000000E-02 -4.89999480E-02
      5.00000000E-02  2.40000000E-02 -4.89999512E-02
      1.00000000E-01  2.40000000E-02 -4.89999567E-02
      1.50000000E-01  2.40000000E-02 -4.89999578E-02
      2.00000000E-01  2.40000000E-02 -4.89999578E-02
      2.50000000E-01  2.40000000E-02 -4.89999578E-02
      3.00000000E-01  2.40000000E-02 -4.89999578E-02
      3.50000000E-01  2.40000000E-02 -4.89999578E-02
      4.00000000E-01  2.40000000E-02 -4.89999578E-02
      4.50000000E-01  2.40000000E-02 -4.89999578E-02
      5.00000000E-01  2.40000000E-02 -4.89999567E-02
      0.00000000E+00  2.10000000E-02 -4.89999480E-02
      5.00000000E-02  2.10000000E-02 -4.89999512E-02
      1.00000000E-01  2.10000000E-02 -4.89999578E-02
      1.50000000E-01  2.10000000E-02 -4.89999632E-02
      2.00000000E-01  2.10000000E-02 -4.89999642E-02
      2.50000000E-01  2.10000000E-02 -4.89999642E-02
      3.00000000E-01  2.10000000E-02 -4.89999642E-02
      3.50000000E-01  2.10000000E-02 -4.89999642E-02
      4.00000000E-01  2.10000000E-02 -4.89999642E-02
      4.50000000E-01  2.10000000E-02 -4.89999642E-02
      5.00000000E-01  2.10000000E-02 -4.89999632E-02
      0.00000000E+00  1.80000000E-02 -4.89999480E-02
      5.00000000E-02  1.80000000E-02 -4.89999512E-02
      1.00000000E-01  1.80000000E-02 -4.89999578E-02
      1.50000000E-01  1.80000000E-02 -4.89999642E-02
      2.00000000E-01  1.80000000E-02 -4.89999697E-02
      2.50000000E-01  1.80000000E-02 -4.89999708E-02
      3.00000000E-01  1.80000000E-02 -4.89999708E-02
      3.50000000E-01  1.80000000E-02 -4.89999708E-02
      4.00000000E-01  1.80000000E-02 -4.89999708E-02
      4.50000000E-01  1.80000000E-02 -4.89999708E-02
      5.00000000E-01  1.80000000E-02 -4.89999697E-02
      0.00000000E+00  1.50000000E-02 -4.89999480E-02
      5.00000000E-02  1.50000000E-02 -4.89999512E-02
      1.00000000E-01  1.50000000E-02 -4.89999578E-02
      1.50000000E-01  1.50000000E-02 -4.89999642E-02
      2.00000000E-01  1.50000000E-02 -4.89999708E-02
      2.50000000E-01  1.50000000E-02 -4.89999762E-02
      3.00000000E-01  1.50000000E-02 -4.89999772E-02
      3.50000000E-01  1.50000000E-02 -4.89999772E-02
      4.00000000E-01  1.50000000E-02 -4.89999772E-02
      4.50000000E-01  1.50000000E-02 -4.89999772E-02
      5.00000000E-01  1.50000000E-02 -4.89999762E-02
      0.00000000E+00  1.20000000E-02 -4.89999480E-02
      5.00000000E-02  1.20000000E-02 -4.89999512E-02
      1.00000000E-01  1.20000000E-02 -4.89999578E-02
      1.50000000E-01  1.20000000E-02 -4.89999642E-02
      2.00000000E-01  1.20000000E-02 -4.89999708E-02
      2.50000000E-01  1.20000000E-02 -4.89999772E-02
      3.00000000E-01  1.20000000E-02 -4.89999827E-02
      3.50000000E-01  1.20000000E-02 -4.89999838E-02
      4.00000000E-01  1.20000000E-02 -4.89999838E-02
      4.50000000E-01  1.20000000E-02 -4.89999838E-02
      5.00000000E-01  1.20000000E-02 -4.89999827E-02
      0.00000000E+00  9.00000000E-03 -4.89999480E-02
      5.00000000E-02  9.00000000E-03 -4.89999512E-02
      1.00000000E-01  9.00000000E-03 -4.89999578E-02
      1.50000000E-01  9.00000000E-03 -4.89999642E-02
      2.00000000E-01  9.00000000E-03 -4.89999708E-02
      2.50000000E-01  9.00000000E-03 -4.89999772E-02
      3.00000000E-01  9.00000000E-03 -4.89999838E-02
      3.50000000E-01  9.00000000E-03 -4.89999892E-02
      4.00000000E-01  9.00000000E-03 -4.89999903E-02
[...]
POINT_DATA     1320
SCALARS pressure float
LOOKUP_TABLE default
  -3.5371570734437981E-002
  -3.4927572050366534E-002
  -3.4932711807820566E-002
  -3.4914492534028480E-002
  -3.4874340939720513E-002
  -3.5852452378751454E-002
  -6.5811909448639141E-002
  -8.5826996685896731E-002
  -8.8757742346041960E-002
  -7.3484886137299144E-002
  -3.5931734984434742E-002
  -3.5311188480938741E-002
  -3.4882700531891554E-002
  -3.4887797751840803E-002
  -3.4869220148423342E-002
  -3.4829293714143492E-002
  -3.5826826843786429E-002
  -6.5885440248393004E-002
  -8.6178139507581741E-002
  -8.9356952608813198E-002
  -7.3618597918285678E-002
  -3.5870646784012417E-002
  -3.5278696533439076E-002
  -3.4858296867236356E-002
  -3.4863335414471612E-002
  -3.4844460658305730E-002
  -3.4805042634802150E-002
  -3.5824886505917745E-002
  -6.6040131542197761E-002
  -8.6757687433234421E-002
  -9.0278956946133110E-002
  -7.3902309277765060E-002
  -3.5828349203991305E-002
  -3.5260539066404986E-002
  -3.4844591779431063E-002
  -3.4849563418260808E-002
  -3.4830418700890840E-002
  -3.4791622833943291E-002
  -3.5834292120898614E-002
  -6.6176327801680243E-002
  -8.7235688814211065E-002
  -9.1010323373452134E-002
  -7.4131913574973451E-002
  -3.5794299334275262E-002
  -3.5249129409275631E-002
  -3.4836086582021836E-002
  -3.4840988067403433E-002
  -3.4821584774764706E-002
  -3.4783462339720447E-002
  -3.5848563557716227E-002
  -6.6249650246087338E-002
  -8.7496415661429225E-002
  -9.1392860539778908E-002
  -7.4230593713345144E-002
  -3.5762908282718657E-002
  -3.5239699562687694E-002
  -3.4829368728176928E-002
  -3.4834201153965363E-002
  -3.4814542715244388E-002
  -3.4777126236709061E-002
  -3.5864081851365658E-002
  -6.6242247563827544E-002
  -8.7501871605048617E-002
  -9.1379494932428765E-002
  -7.4171544476902690E-002
  -3.5731101582947788E-002
  -3.5228283910271510E-002
  -3.4821730042904245E-002
  -3.4826498745475977E-002
  -3.4806583101546718E-002
  -3.4769901125321946E-002
  -3.5878302896004313E-002
  -6.6151413110478050E-002
  -8.7247865394121799E-002
  -9.0965718776009979E-002
  -7.3951154157172239E-002
  -3.5697043162150152E-002
  -3.5210068822333594E-002
  -3.4810091303426507E-002
  -3.4814805058457271E-002
  -3.4794623285639162E-002
  -3.4758693143250891E-002
  -3.5888380209580600E-002
  -6.5988234768268691E-002
  -8.6759307287805967E-002
  -9.0182797054128683E-002
  -7.3585977532936914E-002
  -3.5659267061084174E-002
  -3.5177392293491094E-002
  -3.4789782469472327E-002
  -3.4794449438514119E-002
  -3.4773979532886426E-002
  -3.4738771163897585E-002
  -3.5889552651468433E-002
  -6.5785443959171477E-002
  -8.6119048491195047E-002
  -8.9141557330746177E-002
  -7.3130238559488789E-002
  -3.5615915603350902E-002
  -3.5116587389231700E-002
  -3.4752704717673444E-002
  -3.4757318424057958E-002
  -3.4736510121162557E-002
  -3.4701855287886302E-002
  -3.5872552155556181E-002
  -6.5619520098191539E-002
  -8.5564475350823455E-002
  -8.8197307084979359E-002
  -7.2732122134794228E-002
  -3.5562287473283501E-002
  -3.3903680613006172E-002
  -3.3873774016872124E-002
  -3.3990713497487973E-002
  -3.4139732914934703E-002
  -3.4792060070614472E-002
  -3.9080697167578858E-002
  -5.8950056130104081E-002
  -8.9503493930064779E-002
 -0.10094105962357845     
  -6.7301953746533721E-002
  -4.9007564396681746E-002
  -3.3902844528202275E-002
  -3.3873235338128041E-002
  -3.3990712955906166E-002
  -3.4140149480184123E-002
  -3.4793745529782219E-002
  -3.9084342418461940E-002
  -5.8946128615151597E-002
  -8.9494980680422623E-002
 -0.10094906394561937     
  -6.7307050397777471E-002
  -4.8974023649398256E-002
  -3.3902121456094919E-002
  -3.3872897836780227E-002
  -3.3990907063794012E-002
  -3.4140760846247953E-002
  -3.4795717678782034E-002
  -3.9088688098897241E-002
  -5.8943759697212661E-002
  -8.9491328244523632E-002
 -0.10096478567755314     
  -6.7313098037720023E-002
  -4.8941347945736222E-002
  -3.3901520626668534E-002
  -3.3872718898162520E-002
  -3.3991255213505302E-002
  -3.4141526817303147E-002
  -3.4797908255233455E-002
  -3.9093503415556639E-002
  -5.8941506208584488E-002
  -8.9487010407336628E-002
 -0.10097865539044863     
  -6.7317916948813505E-002
  -4.8909150217752752E-002
  -3.3901006839995612E-002
  -3.3872641382448769E-002
  -3.3991702496898049E-002
  -3.4142392431795704E-002
  -3.4800232061326181E-002
  -3.9098543261721616E-002
  -5.8938224454275302E-002
  -8.9478140809062634E-002
 -0.10098423003944267     
  -6.7320115137875919E-002
  -4.8877118895643647E-002
  -3.3900520373492928E-002
  -3.3872602614066390E-002
  -3.3992188522429308E-002
  -3.4143297322923288E-002
  -3.4802600685267464E-002
  -3.9103589702812844E-002
  -5.8933295497522915E-002
  -8.9462886544127776E-002
 -0.10097865337334347     
  -6.7319271295484651E-002
  -4.8845013335419254E-002
  -3.3899998172621980E-002
  -3.3872541040010209E-002
  -3.3992654014636144E-002
  -3.4144182269671995E-002
  -3.4804927951550033E-002
  -3.9108459873208899E-002
  -5.8926684244313313E-002
  -8.9441496110904933E-002
 -0.10096263143584597     
  -6.7315941111664945E-002
  -4.8812654567569967E-002
  -3.3899388696376195E-002
  -3.3872398860708440E-002
  -3.3993043473111315E-002
  -3.4144991768049054E-002
  -3.4807131129054508E-002
  -3.9113002583900214E-002
  -5.8918945628065870E-002
  -8.9416299514191902E-002
 -0.10094042364278687     
  -6.7311628979227142E-002
  -4.8779906103365848E-002
  -3.3898681740956497E-002
  -3.3872131018662911E-002
  -3.3993314262909920E-002
  -3.4145683154883220E-002
  -3.4809139065429810E-002
  -3.9117096581031532E-002
  -5.8911179223345100E-002
  -8.9391653798885307E-002
 -0.10091977171935824     
  -6.7309426358843225E-002
  -4.8748003793101728E-002
  -3.3897953599312441E-002
  -3.3871723217571523E-002
  -3.3993455537219580E-002
  -3.4146245769530743E-002
  -3.4810911943781900E-002
  -3.9120654541911201E-002
  -5.8904827001801115E-002
  -8.9373355600994200E-002
 -0.10091089956133131     
  -6.7310817393874969E-002
  -4.8716777306187911E-002
  -3.3957945818893692E-002
  -3.3273777946011468E-002
  -3.3146855558349377E-002
  -3.3465944060081999E-002
  -3.5060907102210319E-002
  -4.1370553022610695E-002
  -6.2996330683777649E-002
 -0.11379723219661410     
 -0.13049103722894884     
  -9.1811970895366052E-002
  -7.7857610191572516E-002
  -3.3954530398596638E-002
  -3.3269595889917680E-002
  -3.3143279988543134E-002
  -3.3463208289023536E-002
  -3.5058770729983604E-002
  -4.1368296760899294E-002
  -6.2985948354189233E-002
 -0.11375893348950110     
 -0.13053816468893475     
  -9.1832349683995743E-002
  -7.7842035048528505E-002
  -3.3951174044022661E-002
  -3.3265505498031742E-002
  -3.3139797756986236E-002
  -3.3460569634605308E-002
  -3.5056756421119543E-002
  -4.1366152429223639E-002
  -6.2975482956042661E-002
 -0.11372103299416506     
 -0.13058481546583184     
  -9.1851850791978884E-002
  -7.7826696173173143E-002
  -3.3947857631393893E-002
  -3.3261480110203925E-002
  -3.3136382505028865E-002
  -3.3458001005518816E-002
  -3.5054830094816233E-002
  -4.1364088607125864E-002
  -6.2964945531828867E-002
 -0.11368331950152327     
 -0.13063094853240251     
  -9.1870698672900944E-002
  -7.7811493769086248E-002
  -3.3944563679544848E-002
  -3.3257493982671131E-002
  -3.3133008920065855E-002
  -3.3455476418032724E-002
  -3.5052958017630177E-002
  -4.1362072474573124E-002
  -6.2954346436177075E-002
 -0.11364560480573703     
 -0.13067658851717787     
  -9.1889134456629495E-002
  -7.7796343872540238E-002
  -3.3941274517868873E-002
  -3.3253522050504254E-002
  -3.3129652530766149E-002
  -3.3452970638605410E-002
  -3.5051107350121118E-002
  -4.1360071278002265E-002
  -6.2943704555871671E-002
 -0.11360776255400828     
 -0.13072187948407293     
  -9.1907428796021193E-002
  -7.7781171441494767E-002
  -3.3937972109340304E-002
  -3.3249539114459825E-002
  -3.3126288805115305E-002
  -3.3450458333120034E-002
  -3.5049245229513679E-002
  -4.1358054283308847E-002
  -6.2933052542034296E-002
 -0.11356974362417824     
 -0.13076710012964704     
  -9.1925887201883050E-002
  -7.7765906704072407E-002
  -3.3934638124341304E-002
  -3.3245519812230583E-002
  -3.3122893034690223E-002
  -3.3447914008284063E-002
  -3.5047338938984186E-002
  -4.1355992498852960E-002
  -6.2922440043008107E-002
 -0.11353156760153006     
 -0.13081263843730925     
  -9.1944845726392832E-002
  -7.7750480397737326E-002
  -3.3931253536775084E-002
  -3.3241438303802766E-002
  -3.3119439938851199E-002
  -3.3445311647820518E-002
  -3.5045355766586787E-002
  -4.1353858858018441E-002
  -6.2911926842545735E-002
 -0.11349329693106504     
 -0.13085892611636993     
  -9.1966933520994470E-002
  -7.7737804133061042E-002
  -3.3927812390802878E-002
  -3.3237276312203773E-002
  -3.3115911467157380E-002
  -3.3442632553845157E-002
  -3.5043270927185143E-002
  -4.1351634016512484E-002
  -6.2901574361157342E-002
 -0.11345497443744464     
 -0.13090633086560144     
  -9.1987938852772635E-002
  -7.7727809896092112E-002
  -3.8373687687107950E-002
  -3.6896185629770963E-002
  -3.6050008948491002E-002
  -3.6324795854602639E-002
  -3.9895656465447071E-002
  -5.3088358181102954E-002
  -9.4845662800280436E-002
 -0.16944332529978037     
 -0.17509233395896598     
 -0.15038564802107565     
 -0.14539212421979536     
  -3.8365149555920748E-002
  -3.6881700242239197E-002
  -3.6034336248242468E-002
  -3.6309430471804946E-002
  -3.9880904785943916E-002
  -5.3073944088614072E-002
  -9.4818149681133515E-002
 -0.16941857000144833     
 -0.17516083970466828     
 -0.15046127026639852     
 -0.14546118636684949     
  -3.8356814795063560E-002
  -3.6867675710406694E-002
  -3.6019073531833694E-002
  -3.6294443058745775E-002
  -3.9866530651475648E-002
  -5.3059903971338036E-002
  -9.4791170206066200E-002
 -0.16939615184103554     
 -0.17522683382277998     
 -0.15053485351188475     
 -0.14552733096686363     
  -3.8348614246608508E-002
  -3.6853968717114660E-002
  -3.6004092430413720E-002
  -3.6279713433445382E-002
  -3.9852415582333996E-002
  -5.3046121210373207E-002
  -9.4764571239639259E-002
 -0.16937535588759098     
 -0.17529104950281593     
 -0.15060700891572990     
 -0.14559139304191804     
  -3.8340484348951674E-002
  -3.6840440086303702E-002
  -3.5989267260582027E-002
  -3.6265125892288294E-002
  -3.9838441646788375E-002
  -5.3032477459813217E-002
  -9.4738193996090347E-002
 -0.16935550186774256     
 -0.17535421010132116     
 -0.15067836004934188     
 -0.14565421146890495     
  -3.8332361503056717E-002
  -3.6826951023481158E-002
  -3.5974471600996677E-002
  -3.6250563567593500E-002
  -3.9824492343354390E-002
  -5.3018851306550950E-002
  -9.4711873953573361E-002
 -0.16933593073010325     
 -0.17541703431895975     
 -0.15074953853174453     
 -0.14571662741256119     
  -3.8324181331051935E-002
  -3.6813362102463852E-002
  -3.5959578099109227E-002
  -3.6235908431234629E-002
  -3.9810449570419189E-002
  -5.3005124133110031E-002
  -9.4685442595805844E-002
 -0.16931599064712294     
 -0.17548024271266988     
 -0.15082118255399191     
 -0.14577948745685299     
  -3.8315878253856531E-002
  -3.6799532533333089E-002
  -3.5944458265272011E-002
  -3.6221041466932787E-002
  -3.9796193946670361E-002
  -5.2991175142020043E-002
  -9.4658738079686541E-002
 -0.16929502127246662     
 -0.17554456203893826     
 -0.15089393497181142     
 -0.14584364682943349     
  -3.8307384961965951E-002
  -3.6785319373264354E-002
  -3.5928982208897758E-002
  -3.6205842500489714E-002
  -3.9781605145052093E-002
  -5.2976882278387566E-002
  -9.4631599058550078E-002
 -0.16927234772150657     
 -0.17561072345927564     
 -0.15097184747036260     
 -0.14591337665365225     
  -3.8298632596225138E-002
  -3.6770577627018200E-002
  -3.5913019319272689E-002
  -3.6190190953136255E-002
  -3.9766562763008384E-002
  -5.2962124034986735E-002
  -9.4603868259825100E-002
 -0.16924725734299972     
 -0.17567947228197150     
 -0.15104870076151786     
 -0.14598951717043926     
  -6.4148378644475118E-002
  -6.5709014546533134E-002
  -6.4139417873874935E-002
  -6.5280595574849401E-002
  -7.7012400204335224E-002
 -0.11302276530469735     
 -0.17106351621447474     
 -0.18621206792520431     
 -0.18244995894496344     
 -0.17732957967582413     
 -0.17637953808533860     
  -6.4154579018264199E-002
  -6.5726258172488589E-002
  -6.4155562545783862E-002
  -6.5297861611193400E-002
  -7.7041416871921523E-002
 -0.11308278958396242     
 -0.17110161088622447     
 -0.18621498517592333     
 -0.18245871720154441     
 -0.17734528800758753     
 -0.17639052120942733     
  -6.4160519989093862E-002
  -6.5743586097757212E-002
  -6.4171800196293177E-002
  -6.5315140522386447E-002
  -7.7070178602687667E-002
 -0.11314190603099698     
 -0.17113722580071891     
 -0.18621782989733296     
 -0.18246735662935984     
 -0.17736050761127981     
 -0.17640135028412765     
  -6.4166293906663591E-002
  -6.5760981444855593E-002
  -6.4188115358610909E-002
  -6.5332434191428868E-002
  -7.7098771387787771E-002
 -0.11320039789230685     
 -0.17117102637405382     
 -0.18622063056316154     
 -0.18247590852617881     
 -0.17737538769472430     
 -0.17641207043329193     
  -6.4171983237906960E-002
  -6.5778437568210113E-002
  -6.4204499335801385E-002
  -6.5349761126688014E-002
  -7.7127292725405666E-002
 -0.11325857807485655     
 -0.17120376956135180     
 -0.18622340770153709     
 -0.18248439945856165     
 -0.17739005718277642     
 -0.17642271518252539     
  -6.4177667117278375E-002
  -6.5795955524620545E-002
  -6.4220947859548905E-002
  -6.5367143644021200E-002
  -7.7155856178130464E-002
 -0.11331677473726069     
 -0.17123626347217080     
 -0.18622617778303929     
 -0.18249285284182773     
 -0.17740463196931747     
 -0.17643331013242636     
  -6.4183425386151197E-002
  -6.5813540571690518E-002
  -6.4237460093261686E-002
  -6.5384606501654202E-002
  -7.7184577386937236E-002
 -0.11337533443812797     
 -0.17126933731064067     
 -0.18622895651602717     
 -0.18250129018268860     
 -0.17741922234470692     
 -0.17644387647944448     
  -6.4189341773665684E-002
  -6.5831197664310573E-002
  -6.4254035642202487E-002
  -6.5402174900320395E-002
  -7.7213571320216168E-002
 -0.11343460121924230     
 -0.17130382432046601     
 -0.18623176183424131     
 -0.18250973204235404     
 -0.17743394023390521     
 -0.17645443418455226     
  -6.4195507384861045E-002
  -6.5848927155836567E-002
  -6.4270671817423686E-002
  -6.5419871595476992E-002
  -7.7242949702583927E-002
 -0.11349490922791396     
 -0.17134052249680454     
 -0.18623461850422390     
 -0.18251819736182812     
 -0.17744969344275693     
 -0.17646548312610216     
  -6.4202027010852453E-002
  -6.5866722012230858E-002
  -6.4287362607425777E-002
  -6.5437715749062958E-002
  -7.7272818567432566E-002
 -0.11355657532895447     
 -0.17138015781462743     
 -0.18623756110136558     
 -0.18252670947801672     
 -0.17746505408238489     
 -0.17647705296868224     
 -0.17632763459173456     
 -0.18673448954991892     
 -0.17789100963658605     
 -0.17358587177664805     
 -0.17967145406972679     
 -0.18611355304264771     
 -0.18350419827555034     
 -0.17783188513752007     
 -0.17359318960404208     
 -0.17113797878950535     
 -0.17050555562559497     
 -0.17643080780952039     
 -0.18697468188415176     
 -0.17810189669023996     
 -0.17376855650560985     
 -0.17981236392091124     
 -0.18616109436066205     
 -0.18350711626095778     
 -0.17783258015605338     
 -0.17359419525217562     
 -0.17113919606098588     
 -0.17050562597653846     
 -0.17653461186369251     
 -0.18720737436343807     
 -0.17830751531163408     
 -0.17394541729044730     
 -0.17994402555081485     
 -0.18620310877705470     
 -0.18351018984210365     
 -0.17783329907249365     
 -0.17359522785669382     
 -0.17114047157058068     
 -0.17050578882972489     
 -0.17663888236795208     
 -0.18743493680889867     
 -0.17850950450803532     
 -0.17411816851527376     
 -0.18006907952171333     
 -0.18624142397177296     
 -0.18351335642507319     
 -0.17783403400967840     
 -0.17359627816829271     
 -0.17114178491617685     
 -0.17050601562255699     
 -0.17674346002165789     
 -0.18765965717643621     
 -0.17870948074368859     
 -0.17428856491845493     
 -0.18019018775655818     
 -0.18627759770119970     
 -0.18351657110460670     
 -0.17783477775646866     
 -0.17359733779573172     
 -0.17114311870756602     
 -0.17050628007062713     
 -0.17684819028786569     
 -0.18788377979789608     
 -0.17890904810127761     
 -0.17445837596255176     
 -0.18031003957572281     
 -0.18631302576479369     
 -0.18351979988003486     
 -0.17783552383727136     
 -0.17359839918152034     
 -0.17114445757218369     
 -0.17050655769921877     
 -0.17695291854863801     
 -0.18810954317132075     
 -0.17910981308647364     
 -0.17462938288082225     
 -0.18043133927414212     
 -0.18634905703761090     
 -0.18352301217894706     
 -0.17783626622097620     
 -0.17359945503871355     
 -0.17114578680682463     
 -0.17050682476619539     
 -0.17705748585330319     
 -0.18833921780722956     
 -0.17931339709310740     
 -0.17480337507587770     
 -0.18055681055613557     
 -0.18638709623499566     
 -0.18352617275793728     
 -0.17783699904737216     
 -0.17360049802123073     
 -0.17114709109268758     
 -0.17050705725066734     
 -0.17716172476846048     
 -0.18857514561996375     
 -0.17952145003403838     
 -0.17498214553948549     
 -0.18068920030784855     
 -0.18642871700483621     
 -0.18352923455806155     
 -0.17783771436703052     
 -0.17360152002676202     
 -0.17114779228743654     
 -0.17050664010558983     
 -0.17726545761954482     
 -0.18881977947201195     
 -0.17973566362916749     
 -0.17516748611410757     
 -0.18083127398598192     
 -0.18647577787845768     
 -0.18353213122462528     
 -0.17783840347160537     
 -0.17360251078982494     
 -0.17114899208434869     
 -0.17050554530284281     
 -0.22782928316089016     
 -0.22472840302496389     
 -0.21488084491437257     
 -0.20230239923152568     
 -0.19025873875050617     
 -0.18013302243118695     
 -0.17221295868763170     
 -0.16651310736588124     
 -0.16282629323145095     
 -0.16085702064578511     
 -0.16046441123092581     
 -0.22783795680057373     
 -0.22474506147341178     
 -0.21489887347435951     
 -0.20231512988801559     
 -0.19026459639384807     
 -0.18013573352918877     
 -0.17221489320085984     
 -0.16651481854742800     
 -0.16282789961509714     
 -0.16085857815790922     
 -0.16046493267749615     
 -0.22784398487117116     
 -0.22475879447961461     
 -0.21491445555243102     
 -0.20232704892428713     
 -0.19027077765822306     
 -0.18013862115896712     
 -0.17221683263438461     
 -0.16651651960588343     
 -0.16282949770197017     
 -0.16086011807144507     
 -0.16046546935469366     
 -0.22784859638174751     
 -0.22477097710760649     
 -0.21492868242657984     
 -0.20233854023037043     
 -0.19027716549767135     
 -0.18014161141190899     
 -0.17221877569906913     
 -0.16651821408798886     
 -0.16283109041585797     
 -0.16086164605732442     
 -0.16046601754578629     
 -0.22785253524601456     
 -0.22478239912447495     
 -0.21494221532503049     
 -0.20234981436814223     
 -0.19028366300660673     
 -0.18014465398950522     
 -0.17222072068896799     
 -0.16651990458861604     
 -0.16283267982542832     
 -0.16086316678364063     
 -0.16046657244438572     
 -0.22785628229431062     
 -0.22479353453948270     
 -0.21495548052944743     
 -0.20236099036410854     
 -0.19029018541094875     
 -0.18014771260927018     
 -0.17222266662490379     
 -0.16652159369743058     
 -0.16283426801219000     
 -0.16086468482174635     
 -0.16046712927693843     
 -0.22786024844393921     
 -0.22480474755386512     
 -0.21496882184741881     
 -0.20237215346415041     
 -0.19029665171618096     
 -0.18015075310028669     
 -0.17222461334871164     
 -0.16652328431584848     
 -0.16283585706561371     
 -0.16086620471522284     
 -0.16046768327841304     
 -0.22786496142827334     