# vtk DataFile Version 2.0
3D Unstructured Grid of Linear Triangles
ASCII
DATASET UNSTRUCTURED_GRID
FIELD FieldData  1
TIME 1 1 double
      176405.71896
POINTS     1320 float
      0.00000000E+00  2.70000000E-02  1.00005200E-03
      5.00000000E-02  2.70000000E-02  1.00004767E-03
      1.00000000E-01  2.70000000E-02  1.00004550E-03
      1.50000000E-01  2.70000000E-02  1.00004550E-03
      2.00000000E-01  2.70000000E-02  1.00004550E-03
      2.50000000E-01  2.70000000E-02  1.00004550E-03
      3.00000000E-01  2.70000000E-02  1.00004550E-03
      3.50000000E-01  2.70000000E-02  1.00004550E-03
      4.00000000E-01  2.70000000E-02  1.00004550E-03
      4.50000000E-01  2.70000000E-02  1.00004550E-03
      5.00000000E-01  2.70000000E-02  1.00004550E-03
      0.00000000E+00  2.40000000E-02  1.00005200E-03
      5.00000000E-02  2.40000000E-02  1.00004875E-03
      1.00000000E-01  2.40000000E-02  1.00004333E-03
      1.50000000E-01  2.40000000E-02  1.00004225E-03
      2.00000000E-01  2.40000000E-02  1.00004225E-03
      2.50000000E-01  2.40000000E-02  1.00004225E-03
      3.00000000E-01  2.40000000E-02  1.00004225E-03
      3.50000000E-01  2.40000000E-02  1.00004225E-03
      4.00000000E-01  2.40000000E-02  1.00004225E-03
      4.50000000E-01  2.40000000E-02  1.00004225E-03
      5.00000000E-01  2.40000000E-02  1.00004333E-03
      0.00000000E+00  2.10000000E-02  1.00005200E-03
      5.00000000E-02  2.10000000E-02  1.00004875E-03
      1.00000000E-01  2.10000000E-02  1.00004225E-03
      1.50000000E-01  2.10000000E-02  1.00003683E-03
      2.00000000E-01  2.10000000E-02  1.00003575E-03
      2.50000000E-01  2.10000000E-02  1.00003575E-03
      3.00000000E-01  2.10000000E-02  1.00003575E-03
      3.50000000E-01  2.10000000E-02  1.00003575E-03
      4.00000000E-01  2.10000000E-02  1.00003575E-03
      4.50000000E-01  2.10000000E-02  1.00003575E-03
      5.00000000E-01  2.10000000E-02  1.00003683E-03
      0.00000000E+00  1.80000000E-02  1.00005200E-03
      5.00000000E-02  1.80000000E-02  1.00004875E-03
      1.00000000E-01  1.80000000E-02  1.00004225E-03
      1.50000000E-01  1.80000000E-02  1.00003575E-03
      2.00000000E-01  1.80000000E-02  1.00003033E-03
      2.50000000E-01  1.80000000E-02  1.00002925E-03
      3.00000000E-01  1.80000000E-02  1.00002925E-03
      3.50000000E-01  1.80000000E-02  1.00002925E-03
      4.00000000E-01  1.80000000E-02  1.00002925E-03
      4.50000000E-01  1.80000000E-02  1.00002925E-03
      5.00000000E-01  1.80000000E-02  1.00003033E-03
      0.00000000E+00  1.50000000E-02  1.00005200E-03
      5.00000000E-02  1.50000000E-02  1.00004875E-03
      1.00000000E-01  1.50000000E-02  1.00004225E-03
      1.50000000E-01  1.50000000E-02  1.00003575E-03
      2.00000000E-01  1.50000000E-02  1.00002925E-03
      2.50000000E-01  1.50000000E-02  1.00002383E-03
      3.00000000E-01  1.50000000E-02  1.00002275E-03
      3.50000000E-01  1.50000000E-02  1.00002275E-03
      4.00000000E-01  1.50000000E-02  1.00002275E-03
      4.50000000E-01  1.50000000E-02  1.00002275E-03
      5.00000000E-01  1.50000000E-02  1.00002383E-03
      0.00000000E+00  1.20000000E-02  1.00005200E-03
      5.00000000E-02  1.20000000E-02  1.00004875E-03
      1.00000000E-01  1.20000000E-02  1.00004225E-03
      1.50000000E-01  1.20000000E-02  1.00003575E-03
      2.00000000E-01  1.20000000E-02  1.00002925E-03
      2.50000000E-01  1.20000000E-02  1.00002275E-03
      3.00000000E-01  1.20000000E-02  1.00001733E-03
      3.50000000E-01  1.20000000E-02  1.00001625E-03
      4.00000000E-01  1.20000000E-02  1.00001625E-03
      4.50000000E-01  1.20000000E-02  1.00001625E-03
      5.00000000E-01  1.20000000E-02  1.00001733E-03
      0.00000000E+00  9.00000000E-03  1.00005200E-03
      5.00000000E-02  9.00000000E-03  1.00004875E-03
      1.00000000E-01  9.00000000E-03  1.00004225E-03
      1.50000000E-01  9.00000000E-03  1.00003575E-03
      2.00000000E-01  9.00000000E-03  1.00002925E-03
      2.50000000E-01  9.00000000E-03  1.00002275E-03
      3.00000000E-01  9.00000000E-03  1.00001625E-03
      3.50000000E-01  9.00000000E-03  1.00001083E-03
      4.00000000E-01  9.00000000E-03  1.00000975E-03
      4.50000000E-01  9.00000000E-03  1.00000975E-03
      5.00000000E-01  9.00000000E-03  1.00001083E-03
      0.00000000E+00  6.00000000E-03  1.00005200E-03
      5.00000000E-02  6.00000000E-03  1.00004875E-03
      1.00000000E-01  6.00000000E-03  1.00004225E-03
      1.50000000E-01  6.00000000E-03  1.00003575E-03
      2.00000000E-01  6.00000000E-03  1.00002925E-03
      2.50000000E-01  6.00000000E-03  1.00002275E-03
      3.00000000E-01  6.00000000E-03  1.00001625E-03
      3.50000000E-01  6.00000000E-03  1.00000975E-03
      4.00000000E-01  6.00000000E-03  1.00000433E-03
      4.50000000E-01  6.00000000E-03  1.00000325E-03
      5.00000000E-01  6.00000000E-03  1.00000433E-03
      0.00000000E+00  3.00000000E-03  1.00005200E-03
      5.00000000E-02  3.00000000E-03  1.00004875E-03
      1.00000000E-01  3.00000000E-03  1.00004225E-03
      1.50000000E-01  3.00000000E-03  1.00003575E-03
      2.00000000E-01  3.00000000E-03  1.00002925E-03
      2.50000000E-01  3.00000000E-03  1.00002275E-03
      3.00000000E-01  3.00000000E-03  1.00001625E-03
      3.50000000E-01  3.00000000E-03  1.00000975E-03
      4.00000000E-01  3.00000000E-03  1.00000325E-03
      4.50000000E-01  3.00000000E-03  9.96666667E-04
      5.00000000E-01  3.00000000E-03  9.96666667E-04
      0.00000000E+00  0.00000000E+00  1.00005200E-03
      5.00000000E-02  0.00000000E+00  1.00004983E-03
      1.00000000E-01  0.00000000E+00  1.00004333E-03
      1.50000000E-01  0.00000000E+00  1.00003683E-03
      2.00000000E-01  0.00000000E+00  1.00003033E-03
      2.50000000E-01  0.00000000E+00  1.00002383E-03
      3.00000000E-01  0.00000000E+00  1.00001733E-03
      3.50000000E-01  0.00000000E+00  1.00001083E-03
      4.00000000E-01  0.00000000E+00  1.00000433E-03
      4.50000000E-01  0.00000000E+00  9.96666667E-04
      5.00000000E-01  0.00000000E+00  9.90000000E-04
      0.00000000E+00  2.70000000E-02 -4.89999480E-02
      5.00000000E-02  2.70000000E-02 -4.89999523E-02
      1.00000000E-01  2.70000000E-02 -4.89999545E-02
      1.50000000E-01  2.70000000E-02 -4.89999545E-02
      2.00000000E-01  2.70000000E-02 -4.89999545E-02
      2.50000000E-01  2.70000000E-02 -4.89999545E-02
      3.00000000E-01  2.70000000E-02 -4.89999545E-02
      3.50000000E-01  2.70000000E-02 -4.89999545E-02
      4.00000000E-01  2.70000000E-02 -4.89999545E-02
      4.50000000E-01  2.70000000E-02 -4.89999545E-02
      5.00000000E-01  2.70000000E-02 -4.89999545E-02
      0.00000000E+00  2.40000000E-02 -4.89999480E-02
      5.00000000E-02  2.40000000E-02 -4.89999512E-02
      1.00000000E-01  2.40000000E-02 -4.89999567E-02
      1.50000000E-01  2.40000000E-02 -4.89999578E-02
      2.00000000E-01  2.40000000E-02 -4.89999578E-02
      2.50000000E-01  2.40000000E-02 -4.89999578E-02
      3.00000000E-01  2.40000000E-02 -4.89999578E-02
      3.50000000E-01  2.40000000E-02 -4.89999578E-02
      4.00000000E-01  2.40000000E-02 -4.89999578E-02
      4.50000000E-01  2.40000000E-02 -4.89999578E-02
      5.00000000E-01  2.40000000E-02 -4.89999567E-02
      0.00000000E+00  2.10000000E-02 -4.89999480E-02
      5.00000000E-02  2.10000000E-02 -4.89999512E-02
      1.00000000E-01  2.10000000E-02 -4.89999578E-02
      1.50000000E-01  2.10000000E-02 -4.89999632E-02
      2.00000000E-01  2.10000000E-02 -4.89999642E-02
      2.50000000E-01  2.10000000E-02 -4.89999642E-02
      3.00000000E-01  2.10000000E-02 -4.89999642E-02
      3.50000000E-01  2.10000000E-02 -4.89999642E-02
      4.00000000E-01  2.10000000E-02 -4.89999642E-02
      4.50000000E-01  2.10000000E-02 -4.89999642E-02
      5.00000000E-01  2.10000000E-02 -4.89999632E-02
      0.00000000E+00  1.80000000E-02 -4.89999480E-02
      5.00000000E-02  1.80000000E-02 -4.89999512E-02
      1.00000000E-01  1.80000000E-02 -4.89999578E-02
      1.50000000E-01  1.80000000E-02 -4.89999642E-02
      2.00000000E-01  1.80000000E-02 -4.89999697E-02
      2.50000000E-01  1.80000000E-02 -4.89999708E-02
      3.00000000E-01  1.80000000E-02 -4.89999708E-02
      3.50000000E-01  1.80000000E-02 -4.89999708E-02
      4.00000000E-01  1.80000000E-02 -4.89999708E-02
      4.50000000E-01  1.80000000E-02 -4.89999708E-02
      5.00000000E-01  1.80000000E-02 -4.89999697E-02
      0.00000000E+00  1.50000000E-02 -4.89999480E-02
      5.00000000E-02  1.50000000E-02 -4.89999512E-02
      1.00000000E-01  1.50000000E-02 -4.89999578E-02
      1.50000000E-01  1.50000000E-02 -4.89999642E-02
      2.00000000E-01  1.50000000E-02 -4.89999708E-02
      2.50000000E-01  1.50000000E-02 -4.89999762E-02
      3.00000000E-01  1.50000000E-02 -4.89999772E-02
      3.50000000E-01  1.50000000E-02 -4.89999772E-02
      4.00000000E-01  1.50000000E-02 -4.89999772E-02
      4.50000000E-01  1.50000000E-02 -4.89999772E-02
      5.00000000E-01  1.50000000E-02 -4.89999762E-02
      0.00000000E+00  1.20000000E-02 -4.89999480E-02
      5.00000000E-02  1.20000000E-02 -4.89999512E-02
      1.00000000E-01  1.20000000E-02 -4.89999578E-02
      1.50000000E-01  1.20000000E-02 -4.89999642E-02
      2.00000000E-01  1.20000000E-02 -4.89999708E-02
      2.50000000E-01  1.20000000E-02 -4.89999772E-02
      3.00000000E-01  1.20000000E-02 -4.89999827E-02
      3.50000000E-01  1.20000000E-02 -4.89999838E-02
      4.00000000E-01  1.20000000E-02 -4.89999838E-02
      4.50000000E-01  1.20000000E-02 -4.89999838E-02
      5.00000000E-01  1.20000000E-02 -4.89999827E-02
      0.00000000E+00  9.00000000E-03 -4.89999480E-02
      5.00000000E-02  9.00000000E-03 -4.89999512E-02
      1.00000000E-01  9.00000000E-03 -4.89999578E-02
      1.50000000E-01  9.00000000E-03 -4.89999642E-02
      2.00000000E-01  9.00000000E-03 -4.89999708E-02
      2.50000000E-01  9.00000000E-03 -4.89999772E-02
      3.00000000E-01  9.00000000E-03 -4.89999838E-02
      3.50000000E-01  9.00000000E-03 -4.89999892E-02
      4.00000000E-01  9.00000000E-03 -4.89999903E-02
[...]
POINT_DATA     1320
SCALARS pressure float
LOOKUP_TABLE default
 -0.27093190016042257     
 -0.26967494072165954     
 -0.26940885695337813     
 -0.26946008548327893     
 -0.26964903437959697     
 -0.26990098221487069     
 -0.26804593815803818     
 -0.26825369755461609     
 -0.26833426679159705     
 -0.26812036226692865     
 -0.26905564728296472     
 -0.27091603349154458     
 -0.26966491856072239     
 -0.26939853363287408     
 -0.26944968994205243     
 -0.26963862519469722     
 -0.26988871833877143     
 -0.26178826368004571     
 -0.26198748697261265     
 -0.26206355697204220     
 -0.26184606607681132     
 -0.26904847422256406     
 -0.27090096114774487     
 -0.26965512826216226     
 -0.26938851570517047     
 -0.26943959807462020     
 -0.26962851881486821     
 -0.26987824970630497     
 -0.26121780802902222     
 -0.26141651531845495     
 -0.26149257354248467     
 -0.26127776155660365     
 -0.26904305473868889     
 -0.27088643919064259     
 -0.26964550307136692     
 -0.26937871401405539     
 -0.26942972577427859     
 -0.26961862929051478     
 -0.26986830636220499     
 -0.26115723517843326     
 -0.26135564314443377     
 -0.26143166395943535     
 -0.26121724094810672     
 -0.26903808753876418     
 -0.27087223734764115     
 -0.26963597629328351     
 -0.26936904148754298     
 -0.26941998402664641     
 -0.26960887272204026     
 -0.26985853747587873     
 -0.26114328447507829     
 -0.26134161863040156     
 -0.26141756171906932     
 -0.26120306641665647     
 -0.26903319807185289     
 -0.27085813207918502     
 -0.26962648144686979     
 -0.26935941334339447     
 -0.26941028686023449     
 -0.26959916151538932     
 -0.26984882259964854     
 -0.26113405412382112     
 -0.26133236350943634     
 -0.26140822075001646     
 -0.26119358794029085     
 -0.26902832360674855     
 -0.27084390181191553     
 -0.26961695214680564     
 -0.26934974529976613     
 -0.26940054961691468     
 -0.26958941026509381     
 -0.26983907501311133     
 -0.26112994557836344     
 -0.26132830227675136     
 -0.26140406282649548     
 -0.26118921859503058     
 -0.26902345695804802     
 -0.27082932227794981     
 -0.26960732196122533     
 -0.26933995262584437     
 -0.26939068720644649     
 -0.26957953400987078     
 -0.26982925005471120     
 -0.26117800466964053     
 -0.26137690180049855     
 -0.26145250926923258     
 -0.26123707956598879     
 -0.26901863964855011     
 -0.27081416176768508     
 -0.26959752427568834     
 -0.26932994918258735     
 -0.26938061320653983     
 -0.26956944655820875     
 -0.26981955650712713     
 -0.26179960492391141     
 -0.26200157391738405     
 -0.26207693526990883     
 -0.26185812831900673     
 -0.26901185410906636     
 -0.27079817592570504     
 -0.26958749307696178     
 -0.26931964732810920     
 -0.26937023983006925     
 -0.26955906059342744     
 -0.26981139724891673     
 -0.26887863540680218     
 -0.26908292806457523     
 -0.26916253155251585     
 -0.26893376301280364     
 -0.26900544234582857     
 -0.22982593894845721     
 -0.22990688882135057     
 -0.22994156353772519     
 -0.23006349577171956     
 -0.23026697461494769     
 -0.23052058718631524     
 -0.23078205308524816     
 -0.23100717185694780     
 -0.23115057852724577     
 -0.23119096853135115     
 -0.23124748893187763     
 -0.22982743845272413     
 -0.22990876903266325     
 -0.22994342789501984     
 -0.23006535217010973     
 -0.23026882642889587     
 -0.23052243252636070     
 -0.23078213748415871     
 -0.23100724164334169     
 -0.23115063249354109     
 -0.23119102911985839     
 -0.23124861529802790     
 -0.22982878768333556     
 -0.22991051390008502     
 -0.22994516160664327     
 -0.23006707527385975     
 -0.23027054411065920     
 -0.23052414204485225     
 -0.23078349006860105     
 -0.23100858074074540     
 -0.23115195586014634     
 -0.23119234522138968     
 -0.23124968239823984     
 -0.22983003299468674     
 -0.22991216316245991     
 -0.22994680295313932     
 -0.23006870766764151     
 -0.23027216891542110     
 -0.23052575943609785     
 -0.23078504742212280     
 -0.23101012449722688     
 -0.23115348329437538     
 -0.23119385487206823     
 -0.23125070805704995     
 -0.22983121937320827     
 -0.22991375502650888     
 -0.22994838849054380     
 -0.23007028470088761     
 -0.23027374035130363     
 -0.23052732171392157     
 -0.23078659283388978     
 -0.23101165628010409     
 -0.23115499839226925     
 -0.23119534848444029     
 -0.23125170741434450     
 -0.22983239054077928     
 -0.22991532704655529     
 -0.22994995473120711     
 -0.23007184235530659     
 -0.23027529306935365     
 -0.23052886741813020     
 -0.23078812616904104     
 -0.23101317529869353     
 -0.23115650062152207     
 -0.23119682821904536     
 -0.23125269588871200     
 -0.22983358989382707     
 -0.22991691654145915     
 -0.22995153793954345     
 -0.23007341704779696     
 -0.23027686284378424     
 -0.23053043130985032     
 -0.23078968769694166     
 -0.23101472057833719     
 -0.23115802859905837     
 -0.23119833285611338     
 -0.23125368895567763     
 -0.22983486150017504     
 -0.22991856103564137     
 -0.22995317463408993     
 -0.23007504545285723     
 -0.23027848639454010     
 -0.23053205202352420     
 -0.23079136251237611     
 -0.23101638140348099     
 -0.23115967091803108     
 -0.23119993716637216     
 -0.23125470212256968     
 -0.22983625109236314     
 -0.22992029870641989     
 -0.22995490209951658     
 -0.23007676502162361     
 -0.23028020122311799     
 -0.23053377980828946     
 -0.23079350637507093     
 -0.23101851266660883     
 -0.23116178553744235     
 -0.23119994367787583     
 -0.23125381800759526     
 -0.22983780682046942     
 -0.22992216957640324     
 -0.22995675965463902     
 -0.23007861525531215     
 -0.23028204686271306     
 -0.23053563926743137     
 -0.23079727911783929     
 -0.23102227191424046     
 -0.23116553111247076     
 -0.23120363536986874     
 -0.23125105459392933     
 -0.20371967995522394     
 -0.20390957567378143     
 -0.20405003076075645     
 -0.20421883667728424     
 -0.20443585559238794     
 -0.20468972325497173     
 -0.20495272896568198     
 -0.20519180960604252     
 -0.20538261159451185     
 -0.20553151504720379     
 -0.20571156626263590     
 -0.20372064888288147     
 -0.20391055104255196     
 -0.20405100476101420     
 -0.20421980809083251     
 -0.20443682445153574     
 -0.20469068829373357     
 -0.20495368773654299     
 -0.20519276167124426     
 -0.20538355859463789     
 -0.20553246053199795     
 -0.20571232518096316     
 -0.20372161866302116     
 -0.20391152905477489     
 -0.20405198237480612     
 -0.20422078168628038     
 -0.20443779501160902     
 -0.20469165501045616     
 -0.20495464856050638     
 -0.20519371574800715     
 -0.20538450745648101     
 -0.20553340547262444     
 -0.20571308618808948     
 -0.20372258788860859     
 -0.20391250871091240     
 -0.20405296219496932     
 -0.20422175890666536     
 -0.20443876776882070     
 -0.20469262344283015     
 -0.20495561124166600     
 -0.20519467165229027     
 -0.20538545803321337     
 -0.20553435043153795     
 -0.20571384999035730     
 -0.20372355658163105     
 -0.20391348917555374     
 -0.20405394290337234     
 -0.20422273748752603     
 -0.20443974330716205     
 -0.20469359322845720     
 -0.20495657482683638     
 -0.20519562844289096     
 -0.20538640942985628     
 -0.20553529521692737     
 -0.20571461533921898     
 -0.20372452504854352     
 -0.20391446983994252     
 -0.20405492386858926     
 -0.20422371632536762     
 -0.20444071957624732     
 -0.20469456516651005     
 -0.20495753914561504     
 -0.20519658548709316     
 -0.20538736106364261     
 -0.20553623993347536     
 -0.20571538108594192     
 -0.20372549364779016     
 -0.20391545016086557     
 -0.20405590452170694     
 -0.20422469485380845     
 -0.20444169553705074     
 -0.20469553727411635     
 -0.20495850506968175     
 -0.20519754271966892     
 -0.20538831244631459     
 -0.20553718477379201     
 -0.20571614611769720     
 -0.20372646263474142     
 -0.20391642952991723     
 -0.20405688423193991     
 -0.20422567244419951     
 -0.20444267056262705     
 -0.20469650845904724     
 -0.20495947060140562     
 -0.20519850099993767     
 -0.20538926353780307     
 -0.20553812990049899     
 -0.20571690929863232     
 -0.20372743197415549     
 -0.20391740714956419     
 -0.20405786218854605     
 -0.20422664828709611     
 -0.20444364384481348     
 -0.20469747793033183     
 -0.20496043462947175     
 -0.20519945828016392     
 -0.20539021511001720     
 -0.20553762573361142     
 -0.20571629441472583     
 -0.20372840081396568     
 -0.20391838244433694     
 -0.20405883782045808     
 -0.20422762181076975     
 -0.20444461481226023     
 -0.20469844509969534     
 -0.20496139677503358     
 -0.20520041371693415     
 -0.20539116535437088     
 -0.20553857410740414     
 -0.20571430200418561     
 -0.18495286085066245     
 -0.18514356057246073     
 -0.18531662861644616     
 -0.18550711978022108     
 -0.18573120297984674     
 -0.18598420522537540     
 -0.18624710391573335     
 -0.18649606747002018     
 -0.18671473525675650     
 -0.18690660942611023     
 -0.18709573162719492     
 -0.18495361547870459     
 -0.18514425320117389     
 -0.18531731309801100     
 -0.18550780132411188     
 -0.18573188308882876     
 -0.18598488368001209     
 -0.18624777998649075     
 -0.18649674077066092     
 -0.18671540598012157     
 -0.18690727536327856     
 -0.18709633440294676     
 -0.18495437288940814     
 -0.18514494981023366     
 -0.18531800171084070     
 -0.18550848588143412     
 -0.18573256584200207     
 -0.18598556476803252     
 -0.18624845867277487     
 -0.18649741665966527     
 -0.18671607923691591     
 -0.18690794313318587     
 -0.18709693821505913     
 -0.18495513135168093     
 -0.18514564922626028     
 -0.18531869315863103     
 -0.18550917434011305     
 -0.18573325140602653     
 -0.18598624829906149     
 -0.18624913979140600     
 -0.18649809496280501     
 -0.18671675486856015     
 -0.18690861278057996     
 -0.18709754401949644     
 -0.18495589023926776     
 -0.18514635023550571     
 -0.18531938602593764     
 -0.18550986456915250     
 -0.18573393982608577     
 -0.18598693359621643     
 -0.18624982230761022     
 -0.18649877465277354     
 -0.18671743186545253     
 -0.18690928350116290     
 -0.18709815097923663     
 -0.18495664903264339     
 -0.18514705166579382     
 -0.18532007928581518     
 -0.18551055518855897     
 -0.18573462899911541     
 -0.18598762073323641     
 -0.18625050557463210     
 -0.18649945472753340     
 -0.18671810924419352     
 -0.18690995451698261     
 -0.18709875824342395     
 -0.18495740722026663     
 -0.18514775234941730     
 -0.18532077191211263     
 -0.18551124518166778     
 -0.18573531754772699     
 -0.18598830761009991     
 -0.18625118967177359     
 -0.18650013454846251     
 -0.18671878602267569     
 -0.18691062505137904     
 -0.18709936495498722     
 -0.18495816428169529     
 -0.18514845111671349     
 -0.18532146287834636     
 -0.18551193353112980     
 -0.18573600445615590     
 -0.18598899285095316     
 -0.18625187250242800     
 -0.18650081420092482     
 -0.18671946157904140     
 -0.18691129432406722     
 -0.18709997025952146     
 -0.18495891963819552     
 -0.18514914680181077     
 -0.18532215116822948     
 -0.18551261922896065     
 -0.18573668871787755     
 -0.18598967545149744     
 -0.18625255270406166     
 -0.18650149160459689     
 -0.18672013598323570     
 -0.18691085105705335     
 -0.18709950253105576     
 -0.18495967227317947     
 -0.18514983870052870     
 -0.18532283624119825     
 -0.18551330174117450     
 -0.18573736980005140     
 -0.18599035488076712     
 -0.18625322974932701     
 -0.18650216587575416     
 -0.18672080760529144     
 -0.18691151766144304     
 -0.18709796255661973     
 -0.16978183474356509     
 -0.17003411088079343     
 -0.17023854253750154     
 -0.17044088936519769     
 -0.17066311335387940     
 -0.17090710043803090     
 -0.17116147158052589     
 -0.17141070731671657     
 -0.17164629464888645     
 -0.17187714982027116     
 -0.17213128302572794     
 -0.16978287191161848     
 -0.17003507758269926     
 -0.17023948657654103     
 -0.17044182654687290     
 -0.17066404956277093     
 -0.17090803767799623     
 -0.17116241068557503     
 -0.17141164907035675     
 -0.17164724000833978     
 -0.17187809787336752     
 -0.17213212723982110     
 -0.16978390973106117     
 -0.17003604516653179     
 -0.17024043196845934     
 -0.17044276407120088     
 -0.17066498575802688     
 -0.17090897486591314     
 -0.17116334969148941     
 -0.17141259066855938     
 -0.17164818512968832     
 -0.17187904441027863     
 -0.17213296978628387     
 -0.16978494712668235     
 -0.17003701333062177     
 -0.17024137820691354     
 -0.17044370338814041     
 -0.17066592275374462     
 -0.17090991250616977     
 -0.17116428911960563     
 -0.17141353265136924     
 -0.17164913057814390     
 -0.17187999034651466     
 -0.17213381230743416     
 -0.16978598406367593     
 -0.17003798171957243     
 -0.17024232465890246     
 -0.17044464322712463     
 -0.17066686123244718     
 -0.17091085064376391     
 -0.17116522870324311     
 -0.17141447476795119     
 -0.17165007613018168     
 -0.17188093580669031     
 -0.17213465469155984     
 -0.16978702061977105     
 -0.17003895001049324     
 -0.17024327103496234     
 -0.17044558298472823     
 -0.17066779995041589     
 -0.17091178999133250     
 -0.17116616851897046     
 -0.17141541678539293     
 -0.17165102158192583     
 -0.17188188093217732     
 -0.17213549679076232     
 -0.16978805688347881     
 -0.17003991788210085     
 -0.17024421704451118     
 -0.17044652238029487     
 -0.17066873831119314     
 -0.17091272931273921     
 -0.17116710929224491     
 -0.17141635879497308     
 -0.17165196672914987     
 -0.17188282586245959     
 -0.17213633844403659     
 -0.16978909293306374     
 -0.17004088501129683     
 -0.17024516239523962     
 -0.17044746113119252     
 -0.17066967604046918     
 -0.17091366801911922     
 -0.17116804979616265     
 -0.17141730153641760     
 -0.17165291169002958     
 -0.17188377073209876     
 -0.17213717949266502     
 -0.16979012878371744     
 -0.17004185108681677     
 -0.17024610680893032     
 -0.17044839896848843     
 -0.17067061287751334     
 -0.17091460585964321     
 -0.17116898946730538     
 -0.17141824381044296     
 -0.17165385721097859     
 -0.17188371856291459     
 -0.17213702831808708     
 -0.16979116404186897     
 -0.17004281626634921     
 -0.17024705048362834     
 -0.17044933609889643     
 -0.17067154903721649     
 -0.17091554305897502     
 -0.17116992854234364     
 -0.17141918554270605     
 -0.17165480254800516     
 -0.17188466610665806     
 -0.17213588639415722     
 -0.15471725722097679     
 -0.15512649255495636     
 -0.15538141210964820     
 -0.15558647288282362     
 -0.15578702919875967     
 -0.15599735134933557     
 -0.15621613229748549     
 -0.15643856063909267     
 -0.15666969832051952     
 -0.15694279914008699     
 -0.15735232787780012     
 -0.15471929162844900     
 -0.15512847694905832     
 -0.15538338539607635     
 -0.15558844345542214     
 -0.15578899991469247     
 -0.15599932337124597     
 -0.15621810712295983     
 -0.15644054123270679     
 -0.15667169078135554     
 -0.15694481449983780     
 -0.15735396218055989     
 -0.15472131565874925     
 -0.15513044854986943     
 -0.15538534652654651     
 -0.15559040053109532     
 -0.15579095663453293     
 -0.15600128131188093     
 -0.15622006777692396     
 -0.15644250753607966     
 -0.15667366868152782     
 -0.15694681015078202     
 -0.15735558824975932     
 -0.15472333172384248     
 -0.15513241118034718     
 -0.15538729902187656     
 -0.15559235003314537     
 -0.15579290453530320     
 -0.15600322998578137     
 -0.15622201910548464     
 -0.15644446443438589     
 -0.15667563698469217     
 -0.15694879252278071     
 -0.15735720976007220     
 -0.15472534304475777     
 -0.15513436837073522     
 -0.15538924606435511     
 -0.15559429440731568     
 -0.15579484844426389     
 -0.15600517345975312     
 -0.15622396480670542     
 -0.15644641565945686     
 -0.15667759950855173     
 -0.15695076684037212     
 -0.15735882826869227     
 -0.15472735294834630     
 -0.15513632363427632     
 -0.15539119120997197     
 -0.15559623686302088     
 -0.15579679081354009     
 -0.15600711656748470     
 -0.15622590895271460     
 -0.15644836492176648     
 -0.15667956005605263     
 -0.15695273827751485     
 -0.15736044527455453     
 -0.15472936477983054     
 -0.15513828047453354     
 -0.15539313800849799     
 -0.15559818099410613     
 -0.15579873487329909     
 -0.15600906177299248     
 -0.15622785639870662     
 -0.15645031632095052     
 -0.15668152242604802     
 -0.15695471199124689     
 -0.15736206226077834     
 -0.15473138187918992     
 -0.15514024240330634     
 -0.15539509001780932     
 -0.15560013040242898     
 -0.15580068425434557     
 -0.15601101233625259     
 -0.15622980963764801     
 -0.15645227475755233     
 -0.15668349082182567     
 -0.15695669315430394     
 -0.15736368070548465     
 -0.15473340753643935     
 -0.15514221298181832     
 -0.15539705084098976     
 -0.15560208873582448     
 -0.15580264263368471     
 -0.15601297195728533     
 -0.15623177199918001     
 -0.15645424280031950     
 -0.15668547023540250     
 -0.15695746715566394     
 -0.15736401982667994     
 -0.15473544475985579     
 -0.15514419640095206     
 -0.15539902470738035     
 -0.15560406027114568     
 -0.15580461431855031     
 -0.15601494496696586     
 -0.15623374783906352     
 -0.15645622444135499     
 -0.15668746387585297     
 -0.15695948236538732     
 -0.15736308239580846     
 -0.13409859062330276     
 -0.13458138847765089     
 -0.13482929658975665     
 -0.13498933813038005     
 -0.13512234889620364     
 -0.13525141717343078     
 -0.13538380010671527     
 -0.13552402641398839     
 -0.13568723482017037     
 -0.13592125611034958     
 -0.13636047688707886     
 -0.13410160612695526     
 -0.13458409821304984     
 -0.13483201462347971     
 -0.13499205280181276     
 -0.13512505315380541     
 -0.13525410721346082     
 -0.13538647501938456     
 -0.13552668793253550     
 -0.13568988747538932     
 -0.13592390412178768     
 -0.13636229384044185     
 -0.13410458192300800     
 -0.13458678038446611     
 -0.13483470246434123     
 -0.13499473530333847     
 -0.13512772474193352     
 -0.13525676478574569     
 -0.13538911768728484     
 -0.13552931741807794     
 -0.13569250808141306     
 -0.13592651093373453     
 -0.13636410612290686     
 -0.13410752967732018     
 -0.13458944336180798     
 -0.13483736901875396     
 -0.13499739834143853     
 -0.13513037507555209     
 -0.13525940062010969     
 -0.13539173878103558     
 -0.13553192548443965     
 -0.13569510724843215     
 -0.13592908981936488     
 -0.13636591692124389     
 -0.13411046109924579     
 -0.13459209477637948     
 -0.13484002237585388     
 -0.13500004876695193     
 -0.13513301475338882     
 -0.13526202399224205     
 -0.13539434687569574     
 -0.13553452064366664     
 -0.13569769349955504     
 -0.13593165179164027     
 -0.13636772658879601     
 -0.13411338782355700     
 -0.13459474217004044     
 -0.13484267113029105     
 -0.13500269457308944     
 -0.13513565046250295     
 -0.13526464532933608     
 -0.13539695106556526     
 -0.13553711129109156     
 -0.13570027525489761     
 -0.13593420766186676     
 -0.13636953546173639     
 -0.13411632147371569     
 -0.13459739306569396     
 -0.13484532385174433     
 -0.13500534435990871     
 -0.13513829013139853     
 -0.13526727122920812     
 -0.13539956169532774     
 -0.13553970643781527     
 -0.13570286091738226     
 -0.13593676818816913     
 -0.13637134389658240     
 -0.13411927373214638     