# vtk DataFile Version 2.0
3D Unstructured Grid of Linear Triangles
ASCII
DATASET UNSTRUCTURED_GRID
FIELD FieldData  1
TIME 1 1 double
       97205.71896
POINTS     1320 float
          0.0000E+00      2.7000E-02      1.0001E-03
          5.0000E-02      2.7000E-02      1.0000E-03
          1.0000E-01      2.7000E-02      1.0000E-03
          1.5000E-01      2.7000E-02      1.0000E-03
          2.0000E-01      2.7000E-02      1.0000E-03
          2.5000E-01      2.7000E-02      1.0000E-03
          3.0000E-01      2.7000E-02      1.0000E-03
          3.5000E-01      2.7000E-02      1.0000E-03
          4.0000E-01      2.7000E-02      1.0000E-03
          4.5000E-01      2.7000E-02      1.0000E-03
          5.0000E-01      2.7000E-02      1.0000E-03
          0.0000E+00      2.4000E-02      1.0001E-03
          5.0000E-02      2.4000E-02      1.0000E-03
          1.0000E-01      2.4000E-02      1.0000E-03
          1.5000E-01      2.4000E-02      1.0000E-03
          2.0000E-01      2.4000E-02      1.0000E-03
          2.5000E-01      2.4000E-02      1.0000E-03
          3.0000E-01      2.4000E-02      1.0000E-03
          3.5000E-01      2.4000E-02      1.0000E-03
          4.0000E-01      2.4000E-02      1.0000E-03
          4.5000E-01      2.4000E-02      1.0000E-03
          5.0000E-01      2.4000E-02      1.0000E-03
          0.0000E+00      2.1000E-02      1.0001E-03
          5.0000E-02      2.1000E-02      1.0000E-03
          1.0000E-01      2.1000E-02      1.0000E-03
          1.5000E-01      2.1000E-02      1.0000E-03
          2.0000E-01      2.1000E-02      1.0000E-03
          2.5000E-01      2.1000E-02      1.0000E-03
          3.0000E-01      2.1000E-02      1.0000E-03
          3.5000E-01      2.1000E-02      1.0000E-03
          4.0000E-01      2.1000E-02      1.0000E-03
          4.5000E-01      2.1000E-02      1.0000E-03
          5.0000E-01      2.1000E-02      1.0000E-03
          0.0000E+00      1.8000E-02      1.0001E-03
          5.0000E-02      1.8000E-02      1.0000E-03
          1.0000E-01      1.8000E-02      1.0000E-03
          1.5000E-01      1.8000E-02      1.0000E-03
          2.0000E-01      1.8000E-02      1.0000E-03
          2.5000E-01      1.8000E-02      1.0000E-03
          3.0000E-01      1.8000E-02      1.0000E-03
          3.5000E-01      1.8000E-02      1.0000E-03
          4.0000E-01      1.8000E-02      1.0000E-03
          4.5000E-01      1.8000E-02      1.0000E-03
          5.0000E-01      1.8000E-02      1.0000E-03
          0.0000E+00      1.5000E-02      1.0001E-03
          5.0000E-02      1.5000E-02      1.0000E-03
          1.0000E-01      1.5000E-02      1.0000E-03
          1.5000E-01      1.5000E-02      1.0000E-03
          2.0000E-01      1.5000E-02      1.0000E-03
          2.5000E-01      1.5000E-02      1.0000E-03
          3.0000E-01      1.5000E-02      1.0000E-03
          3.5000E-01      1.5000E-02      1.0000E-03
          4.0000E-01      1.5000E-02      1.0000E-03
          4.5000E-01      1.5000E-02      1.0000E-03
          5.0000E-01      1.5000E-02      1.0000E-03
          0.0000E+00      1.2000E-02      1.0001E-03
          5.0000E-02      1.2000E-02      1.0000E-03
          1.0000E-01      1.2000E-02      1.0000E-03
          1.5000E-01      1.2000E-02      1.0000E-03
          2.0000E-01      1.2000E-02      1.0000E-03
          2.5000E-01      1.2000E-02      1.0000E-03
          3.0000E-01      1.2000E-02      1.0000E-03
          3.5000E-01      1.2000E-02      1.0000E-03
          4.0000E-01      1.2000E-02      1.0000E-03
          4.5000E-01      1.2000E-02      1.0000E-03
          5.0000E-01      1.2000E-02      1.0000E-03
          0.0000E+00      9.0000E-03      1.0001E-03
          5.0000E-02      9.0000E-03      1.0000E-03
          1.0000E-01      9.0000E-03      1.0000E-03
          1.5000E-01      9.0000E-03      1.0000E-03
          2.0000E-01      9.0000E-03      1.0000E-03
          2.5000E-01      9.0000E-03      1.0000E-03
          3.0000E-01      9.0000E-03      1.0000E-03
          3.5000E-01      9.0000E-03      1.0000E-03
          4.0000E-01      9.0000E-03      1.0000E-03
          4.5000E-01      9.0000E-03      1.0000E-03
          5.0000E-01      9.0000E-03      1.0000E-03
          0.0000E+00      6.0000E-03      1.0001E-03
          5.0000E-02      6.0000E-03      1.0000E-03
          1.0000E-01      6.0000E-03      1.0000E-03
          1.5000E-01      6.0000E-03      1.0000E-03
          2.0000E-01      6.0000E-03      1.0000E-03
          2.5000E-01      6.0000E-03      1.0000E-03
          3.0000E-01      6.0000E-03      1.0000E-03
          3.5000E-01      6.0000E-03      1.0000E-03
          4.0000E-01      6.0000E-03      1.0000E-03
          4.5000E-01      6.0000E-03      1.0000E-03
          5.0000E-01      6.0000E-03      1.0000E-03
          0.0000E+00      3.0000E-03      1.0001E-03
          5.0000E-02      3.0000E-03      1.0000E-03
          1.0000E-01      3.0000E-03      1.0000E-03
          1.5000E-01      3.0000E-03      1.0000E-03
          2.0000E-01      3.0000E-03      1.0000E-03
          2.5000E-01      3.0000E-03      1.0000E-03
          3.0000E-01      3.0000E-03      1.0000E-03
          3.5000E-01      3.0000E-03      1.0000E-03
          4.0000E-01      3.0000E-03      1.0000E-03
          4.5000E-01      3.0000E-03      9.9667E-04
          5.0000E-01      3.0000E-03      9.9667E-04
          0.0000E+00      0.0000E+00      1.0001E-03
          5.0000E-02      0.0000E+00      1.0000E-03
          1.0000E-01      0.0000E+00      1.0000E-03
          1.5000E-01      0.0000E+00      1.0000E-03
          2.0000E-01      0.0000E+00      1.0000E-03
          2.5000E-01      0.0000E+00      1.0000E-03
          3.0000E-01      0.0000E+00      1.0000E-03
          3.5000E-01      0.0000E+00      1.0000E-03
          4.0000E-01      0.0000E+00      1.0000E-03
          4.5000E-01      0.0000E+00      9.9667E-04
          5.0000E-01      0.0000E+00      9.9000E-04
          0.0000E+00      2.7000E-02     -4.9000E-02
          5.0000E-02      2.7000E-02     -4.9000E-02
          1.0000E-01      2.7000E-02     -4.9000E-02
          1.5000E-01      2.7000E-02     -4.9000E-02
          2.0000E-01      2.7000E-02     -4.9000E-02
          2.5000E-01      2.7000E-02     -4.9000E-02
          3.0000E-01      2.7000E-02     -4.9000E-02
          3.5000E-01      2.7000E-02     -4.9000E-02
          4.0000E-01      2.7000E-02     -4.9000E-02
          4.5000E-01      2.7000E-02     -4.9000E-02
          5.0000E-01      2.7000E-02     -4.9000E-02
          0.0000E+00      2.4000E-02     -4.9000E-02
          5.0000E-02      2.4000E-02     -4.9000E-02
          1.0000E-01      2.4000E-02     -4.9000E-02
          1.5000E-01      2.4000E-02     -4.9000E-02
          2.0000E-01      2.4000E-02     -4.9000E-02
          2.5000E-01      2.4000E-02     -4.9000E-02
          3.0000E-01      2.4000E-02     -4.9000E-02
          3.5000E-01      2.4000E-02     -4.9000E-02
          4.0000E-01      2.4000E-02     -4.9000E-02
          4.5000E-01      2.4000E-02     -4.9000E-02
          5.0000E-01      2.4000E-02     -4.9000E-02
          0.0000E+00      2.1000E-02     -4.9000E-02
          5.0000E-02      2.1000E-02     -4.9000E-02
          1.0000E-01      2.1000E-02     -4.9000E-02
          1.5000E-01      2.1000E-02     -4.9000E-02
          2.0000E-01      2.1000E-02     -4.9000E-02
          2.5000E-01      2.1000E-02     -4.9000E-02
          3.0000E-01      2.1000E-02     -4.9000E-02
          3.5000E-01      2.1000E-02     -4.9000E-02
          4.0000E-01      2.1000E-02     -4.9000E-02
          4.5000E-01      2.1000E-02     -4.9000E-02
          5.0000E-01      2.1000E-02     -4.9000E-02
          0.0000E+00      1.8000E-02     -4.9000E-02
          5.0000E-02      1.8000E-02     -4.9000E-02
          1.0000E-01      1.8000E-02     -4.9000E-02
          1.5000E-01      1.8000E-02     -4.9000E-02
          2.0000E-01      1.8000E-02     -4.9000E-02
          2.5000E-01      1.8000E-02     -4.9000E-02
          3.0000E-01      1.8000E-02     -4.9000E-02
          3.5000E-01      1.8000E-02     -4.9000E-02
          4.0000E-01      1.8000E-02     -4.9000E-02
          4.5000E-01      1.8000E-02     -4.9000E-02
          5.0000E-01      1.8000E-02     -4.9000E-02
          0.0000E+00      1.5000E-02     -4.9000E-02
          5.0000E-02      1.5000E-02     -4.9000E-02
          1.0000E-01      1.5000E-02     -4.9000E-02
          1.5000E-01      1.5000E-02     -4.9000E-02
          2.0000E-01      1.5000E-02     -4.9000E-02
          2.5000E-01      1.5000E-02     -4.9000E-02
          3.0000E-01      1.5000E-02     -4.9000E-02
          3.5000E-01      1.5000E-02     -4.9000E-02
          4.0000E-01      1.5000E-02     -4.9000E-02
          4.5000E-01      1.5000E-02     -4.9000E-02
          5.0000E-01      1.5000E-02     -4.9000E-02
          0.0000E+00      1.2000E-02     -4.9000E-02
          5.0000E-02      1.2000E-02     -4.9000E-02
          1.0000E-01      1.2000E-02     -4.9000E-02
          1.5000E-01      1.2000E-02     -4.9000E-02
          2.0000E-01      1.2000E-02     -4.9000E-02
          2.5000E-01      1.2000E-02     -4.9000E-02
          3.0000E-01      1.2000E-02     -4.9000E-02
          3.5000E-01      1.2000E-02     -4.9000E-02
          4.0000E-01      1.2000E-02     -4.9000E-02
          4.5000E-01      1.2000E-02     -4.9000E-02
          5.0000E-01      1.2000E-02     -4.9000E-02
          0.0000E+00      9.0000E-03     -4.9000E-02
          5.0000E-02      9.0000E-03     -4.9000E-02
          1.0000E-01      9.0000E-03     -4.9000E-02
          1.5000E-01      9.0000E-03     -4.9000E-02
          2.0000E-01      9.0000E-03     -4.9000E-02
          2.5000E-01      9.0000E-03     -4.9000E-02
          3.0000E-01      9.0000E-03     -4.9000E-02
          3.5000E-01      9.0000E-03     -4.9000E-02
          4.0000E-01      9.0000E-03     -4.9000E-02
[...]
POINT_DATA     1320
SCALARS saturation float
LOOKUP_TABLE default
       0.8401653
       0.8419578
       0.8419370
       0.8420108
       0.8421736
       0.8382386
       0.7438761
       0.7009527
       0.6955797
       0.7259962
       0.8379225
       0.8404083
       0.8421397
       0.8421191
       0.8421944
       0.8423564
       0.8383409
       0.7436951
       0.7002983
       0.6945054
       0.7257017
       0.8381660
       0.8405391
       0.8422387
       0.8422183
       0.8422948
       0.8424548
       0.8383486
       0.7433150
       0.6992247
       0.6928681
       0.7250786
       0.8383348
       0.8406123
       0.8422943
       0.8422741
       0.8423518
       0.8425093
       0.8383111
       0.7429810
       0.6983451
       0.6915827
       0.7245762
       0.8384708
       0.8406583
       0.8423288
       0.8423089
       0.8423877
       0.8425425
       0.8382541
       0.7428015
       0.6978676
       0.6909150
       0.7243607
       0.8385962
       0.8406963
       0.8423561
       0.8423365
       0.8424163
       0.8425682
       0.8381922
       0.7428196
       0.6978576
       0.6909382
       0.7244896
       0.8387234
       0.8407423
       0.8423871
       0.8423677
       0.8424486
       0.8425976
       0.8381355
       0.7430421
       0.6983228
       0.6916607
       0.7249716
       0.8388596
       0.8408158
       0.8424343
       0.8424152
       0.8424972
       0.8426431
       0.8380953
       0.7434424
       0.6992217
       0.6930380
       0.7257735
       0.8390108
       0.8409476
       0.8425168
       0.8424979
       0.8425810
       0.8427241
       0.8380906
       0.7439413
       0.7004082
       0.6948906
       0.7267801
       0.8391844
       0.8411931
       0.8426675
       0.8426487
       0.8427333
       0.8428742
       0.8381584
       0.7443507
       0.7014439
       0.6965917
       0.7276647
       0.8393993
       0.8461421
       0.8462654
       0.8457837
       0.8451712
       0.8425076
       0.8256971
       0.7616808
       0.6942439
       0.6752109
       0.7402464
       0.7911151
       0.8461455
       0.8462676
       0.8457837
       0.8451695
       0.8425007
       0.8256833
       0.7616915
       0.6942591
       0.6751985
       0.7402341
       0.7912226
       0.8461485
       0.8462690
       0.8457829
       0.8451669
       0.8424927
       0.8256669
       0.7616980
       0.6942656
       0.6751741
       0.7402196
       0.7913274
       0.8461510
       0.8462697
       0.8457814
       0.8451638
       0.8424838
       0.8256487
       0.7617041
       0.6942733
       0.6751525
       0.7402080
       0.7914307
       0.8461531
       0.8462700
       0.8457796
       0.8451602
       0.8424744
       0.8256297
       0.7617131
       0.6942891
       0.6751439
       0.7402027
       0.7915335
       0.8461551
       0.8462702
       0.8457776
       0.8451565
       0.8424648
       0.8256106
       0.7617266
       0.6943163
       0.6751525
       0.7402047
       0.7916367
       0.8461573
       0.8462705
       0.8457757
       0.8451529
       0.8424553
       0.8255922
       0.7617447
       0.6943545
       0.6751774
       0.7402127
       0.7917407
       0.8461598
       0.8462710
       0.8457741
       0.8451496
       0.8424464
       0.8255750
       0.7617658
       0.6943995
       0.6752119
       0.7402231
       0.7918460
       0.8461627
       0.8462721
       0.8457730
       0.8451467
       0.8424382
       0.8255595
       0.7617871
       0.6944434
       0.6752440
       0.7402284
       0.7919486
       0.8461657
       0.8462738
       0.8457724
       0.8451444
       0.8424310
       0.8255461
       0.7618044
       0.6944761
       0.6752578
       0.7402251
       0.7920491
       0.8459186
       0.8487515
       0.8492805
       0.8479526
       0.8414181
       0.8172035
       0.7509584
       0.6566118
       0.6359354
       0.6901870
       0.7166428
       0.8459326
       0.8487689
       0.8492955
       0.8479639
       0.8414268
       0.8172117
       0.7509851
       0.6566634
       0.6358817
       0.6901517
       0.7166751
       0.8459464
       0.8487859
       0.8493100
       0.8479749
       0.8414349
       0.8172195
       0.7510120
       0.6567145
       0.6358286
       0.6901179
       0.7167069
       0.8459601
       0.8488027
       0.8493242
       0.8479856
       0.8414427
       0.8172271
       0.7510391
       0.6567654
       0.6357761
       0.6900853
       0.7167385
       0.8459737
       0.8488193
       0.8493383
       0.8479960
       0.8414503
       0.8172344
       0.7510663
       0.6568163
       0.6357242
       0.6900534
       0.7167700
       0.8459872
       0.8488358
       0.8493523
       0.8480064
       0.8414578
       0.8172417
       0.7510937
       0.6568674
       0.6356727
       0.6900217
       0.7168015
       0.8460008
       0.8488524
       0.8493664
       0.8480169
       0.8414653
       0.8172490
       0.7511211
       0.6569187
       0.6356213
       0.6899898
       0.7168332
       0.8460145
       0.8488692
       0.8493805
       0.8480274
       0.8414730
       0.8172565
       0.7511484
       0.6569703
       0.6355696
       0.6899570
       0.7168653
       0.8460285
       0.8488862
       0.8493950
       0.8480382
       0.8414810
       0.8172643
       0.7511754
       0.6570220
       0.6355171
       0.6899188
       0.7168916
       0.8460427
       0.8489035
       0.8494097
       0.8480494
       0.8414894
       0.8172724
       0.7512020
       0.6570738
       0.6354633
       0.6898825
       0.7169124
       0.8283862
       0.8341096
       0.8374516
       0.8363611
       0.8226368
       0.7784641
       0.6850277
       0.5984489
       0.5939422
       0.6152298
       0.6200856
       0.8284189
       0.8341664
       0.8375139
       0.8364220
       0.8226918
       0.7785073
       0.6850736
       0.5984691
       0.5938887
       0.6151578
       0.6200170
       0.8284507
       0.8342214
       0.8375746
       0.8364813
       0.8227454
       0.7785495
       0.6851187
       0.5984874
       0.5938372
       0.6150879
       0.6199513
       0.8284821
       0.8342752
       0.8376343
       0.8365397
       0.8227981
       0.7785908
       0.6851631
       0.5985044
       0.5937871
       0.6150193
       0.6198878
       0.8285133
       0.8343283
       0.8376933
       0.8365975
       0.8228503
       0.7786318
       0.6852072
       0.5985206
       0.5937379
       0.6149515
       0.6198255
       0.8285444
       0.8343812
       0.8377522
       0.8366552
       0.8229024
       0.7786727
       0.6852512
       0.5985365
       0.5936890
       0.6148840
       0.6197636
       0.8285757
       0.8344346
       0.8378115
       0.8367133
       0.8229548
       0.7787139
       0.6852954
       0.5985528
       0.5936397
       0.6148160
       0.6197013
       0.8286075
       0.8344889
       0.8378718
       0.8367723
       0.8230081
       0.7787558
       0.6853401
       0.5985699
       0.5935897
       0.6147471
       0.6196378
       0.8286400
       0.8345448
       0.8379334
       0.8368326
       0.8230626
       0.7787987
       0.6853855
       0.5985884
       0.5935382
       0.6146733
       0.6195688
       0.8286735
       0.8346027
       0.8379970
       0.8368947
       0.8231188
       0.7788430
       0.6854320
       0.5986089
       0.5934847
       0.6146005
       0.6194935
       0.7480244
       0.7441298
       0.7480471
       0.7451899
       0.7184071
       0.6576597
       0.5971364
       0.5856068
       0.5883515
       0.5922099
       0.5929420
       0.7480088
       0.7440872
       0.7480063
       0.7451470
       0.7183461
       0.6575782
       0.5971057
       0.5856047
       0.5883450
       0.5921978
       0.5929335
       0.7479938
       0.7440445
       0.7479653
       0.7451042
       0.7182858
       0.6574979
       0.5970771
       0.5856026
       0.5883386
       0.5921861
       0.5929251
       0.7479792
       0.7440016
       0.7479241
       0.7450613
       0.7182258
       0.6574186
       0.5970499
       0.5856006
       0.5883323
       0.5921747
       0.5929168
       0.7479648
       0.7439586
       0.7478828
       0.7450183
       0.7181660
       0.6573397
       0.5970236
       0.5855986
       0.5883260
       0.5921634
       0.5929086
       0.7479505
       0.7439154
       0.7478413
       0.7449752
       0.7181062
       0.6572609
       0.5969974
       0.5855966
       0.5883197
       0.5921523
       0.5929004
       0.7479360
       0.7438721
       0.7477997
       0.7449319
       0.7180460
       0.6571816
       0.5969708
       0.5855946
       0.5883135
       0.5921411
       0.5928922
       0.7479210
       0.7438287
       0.7477579
       0.7448884
       0.7179853
       0.6571014
       0.5969431
       0.5855926
       0.5883073
       0.5921298
       0.5928841
       0.7479055
       0.7437850
       0.7477159
       0.7448445
       0.7179238
       0.6570198
       0.5969136
       0.5855905
       0.5883010
       0.5921177
       0.5928755
       0.7478890
       0.7437412
       0.7476739
       0.7448003
       0.7178613
       0.6569365
       0.5968818
       0.5855884
       0.5882947
       0.5921059
       0.5928666
       0.5929821
       0.5852314
       0.5917797
       0.5951252
       0.5904271
       0.5856777
       0.5875748
       0.5918249
       0.5951194
       0.5970765
       0.5975866
       0.5929023
       0.5850594
       0.5916185
       0.5949810
       0.5903209
       0.5856435
       0.5875727
       0.5918244
       0.5951186
       0.5970755
       0.5975865
       0.5928221
       0.5848929
       0.5914617
       0.5948416
       0.5902217
       0.5856132
       0.5875704
       0.5918238
       0.5951178
       0.5970745
       0.5975864
       0.5927416
       0.5847304
       0.5913078
       0.5947056
       0.5901275
       0.5855856
       0.5875681
       0.5918232
       0.5951169
       0.5970734
       0.5975862
       0.5926609
       0.5845702
       0.5911557
       0.5945717
       0.5900364
       0.5855596
       0.5875657
       0.5918227
       0.5951161
       0.5970723
       0.5975860
       0.5925802
       0.5844107
       0.5910041
       0.5944384
       0.5899464
       0.5855341
       0.5875634
       0.5918221
       0.5951153
       0.5970713
       0.5975858
       0.5924995
       0.5842502
       0.5908519
       0.5943043
       0.5898553
       0.5855082
       0.5875610
       0.5918215
       0.5951144
       0.5970702
       0.5975855
       0.5924190
       0.5840872
       0.5906977
       0.5941681
       0.5897612
       0.5854809
       0.5875587
       0.5918210
       0.5951136
       0.5970691
       0.5975854
       0.5923388
       0.5839201
       0.5905404
       0.5940283
       0.5896619
       0.5854510
       0.5875564
       0.5918204
       0.5951128
       0.5970686
       0.5975857
       0.5922591
       0.5837471
       0.5903787
       0.5938835
       0.5895556
       0.5854171
       0.5875543
       0.5918199
       0.5951120
       0.5970676
       0.5975866
       0.5594761
       0.5611937
       0.5668688
       0.5746506
       0.5827355
       0.5900794
       0.5962151
       0.6008650
       0.6039850
       0.6056894
       0.6060325
       0.5594714
       0.5611844
       0.5668581
       0.5746424
       0.5827314
       0.5900774
       0.5962135
       0.6008636
       0.6039836
       0.6056881
       0.6060320
       0.5594680
       0.5611767
       0.5668489
       0.5746347
       0.5827271
       0.5900752
       0.5962120
       0.6008621
       0.6039822
       0.6056867
       0.6060316
       0.5594655
       0.5611699
       0.5668404
       0.5746273
       0.5827226
       0.5900729
       0.5962104
       0.6008607
       0.6039808
       0.6056854
       0.6060311
       0.5594634
       0.5611635
       0.5668324
       0.5746201
       0.5827181
       0.5900707
       0.5962089
       0.6008593
       0.6039795
       0.6056841
       0.6060306
       0.5594613
       0.5611573
       0.5668245
       0.5746129
       0.5827135
       0.5900684
       0.5962073
       0.6008579
       0.6039781
       0.6056827
       0.6060301
       0.5594591
       0.5611510
       0.5668166
       0.5746057
       0.5827090
       0.5900661
       0.5962058
       0.6008565
       0.6039768
       0.6056814
       0.6060296
       0.5594565
       0.5611445
       0.5668084
       0.5745984
       0.5827046
       0.5900638
       0.5962042
       0.6008551
       0.6039754
       0.6056801
       0.6060291
       0.5594531
       0.5611372
       0.5667995
       0.5745910
       0.5827003
       0.5900617
       0.5962027
       0.6008537
       0.6039740
       0.6056795
       0.6060294
       0.5594480
       0.5611286
       0.5667894
       0.5745832
       0.5826964
       0.5900596
       0.5962011
       0.6008522
       0.6039726
       0.6056781
       0.6060305
       0.5894595
       0.5905441
       0.5934811
       0.5978405
       0.6028945
       0.6078864
       0.6122535
       0.6156806
       0.6180414
       0.6192885
       0.6193070
       0.5894621
       0.5905448
       0.5934813
       0.5978398
       0.6028930
       0.6078842
       0.6122509
       0.6156778
       0.6180385
       0.6192856
       0.6193053
       0.5894645
       0.5905455
       0.5934813
       0.5978391
       0.6028914
       0.6078820
       0.6122483
       0.6156750
       0.6180356
       0.6192827
       0.6193037
       0.5894669
       0.5905462
       0.5934814
       0.5978383
       0.6028898
       0.6078798
       0.6122458
       0.6156723
       0.6180328
       0.6192798
       0.6193020
       0.5894692
       0.5905468
       0.5934814
       0.5978375
       0.6028882
       0.6078776
       0.6122432
       0.6156695
       0.6180300
       0.6192770
       0.6193003
       0.5894715
       0.5905475
       0.5934814
       0.5978366
       0.6028867
       0.6078754
       0.6122407
       0.6156668
       0.6180271
       0.6192742
       0.6192986
       0.5894738
       0.5905481
       0.5934814
       0.5978358
       0.6028851
       0.6078733
       0.6122381
       0.6156640
       0.6180243
       0.6192714
       0.6192970
       0.5894762
       0.5905488
       0.5934814
       0.5978350
       0.6028835
       0.6078711
       0.6122356
       0.6156613
       0.6180215
       0.6192685
       0.6192953
       0.5894786
       0.5905495
       0.5934815
       0.5978343
       0.6028819
       0.6078689
       0.6122330
       0.6156585
       0.6180186
       0.6192671
       0.6192952
       0.5894812
       0.5905503
       0.5934816
       0.5978336
       0.6028803
       0.6078667
       0.6122304
       0.6156557
       0.6180157
       0.6192642
       0.6192966
       0.6364950
       0.6369538
       0.6380583
       0.6397162
       0.6417179
       0.6438015
       0.6457236
       0.6473020
       0.6484160
       0.6489714
       0.6488286
       0.6364966
       0.6369545
       0.6380588
       0.6397162
       0.6417174
       0.6438003
       0.6457219
       0.6472998
       0.6484135
       0.6489687
       0.6488272
       0.6364982
       0.6369552
       0.6380592
       0.6397162
       0.6417168
       0.6437991
       0.6457201
       0.6472976
       0.6484110
       0.6489661
       0.6488258
       0.6364997
       0.6369559
       0.6380596
       0.6397162
       0.6417163
       0.6437980
       0.6457184
       0.6472955
       0.6484086
       0.6489636
       0.6488244
       0.6365012
       0.6369566
       0.6380601
       0.6397162
       0.6417157
       0.6437968
       0.6457167
       0.6472933
       0.6484061
       0.6489611
       0.6488230
       0.6365027
       0.6369573
       0.6380605
       0.6397162
       0.6417151
       0.6437956
       0.6457150
       0.6472912
       0.6484037
       0.6489585
       0.6488216
       0.6365042
       0.6369580
       0.6380609
       0.6397162
       0.6417146
       0.6437945
       0.6457133
       0.6472890
       0.6484013
       0.6489560
       0.6488202
       0.6365058
       0.6369587
       0.6380613
       0.6397161
       0.6417140
       0.6437933
       0.6457115
       0.6472869
       0.6483988
       0.6489534
       0.6488188
       0.6365073
       0.6369594
       0.6380618
       0.6397161
       0.6417134
       0.6437921
       0.6457098
       0.6472847
       0.6483963
       0.6489540
       0.6488207
       0.6365089
       0.6369601
       0.6380622
       0.6397162
       0.6417129
       0.6437909
       0.6457080
       0.6472825
       0.6483938
       0.6489514
       0.6488259
       0.7141505
       0.7142882
       0.7145444
       0.7149193
       0.7153748
       0.7158579
       0.7163152
       0.7167015
       0.7169828
       0.7171320
       0.7171240
       0.7141514
       0.7142886
       0.7145448
       0.7149196
       0.7153749
       0.7158579
       0.7163150
       0.7167012
       0.7169824
       0.7171316
       0.7171238
       0.7141523
       0.7142890
       0.7145452
       0.7149198
       0.7153751
       0.7158579
       0.7163148
       0.7167009
       0.7169820
       0.7171311
       0.7171236
       0.7141532
       0.7142894
       0.7145455
       0.7149201
       0.7153752
       0.7158578
       0.7163146
       0.7167006
       0.7169816
       0.7171307
       0.7171235
       0.7141541
       0.7142899
       0.7145458
       0.7149203
       0.7153753
       0.7158578
       0.7163144
       0.7167003
       0.7169812
       0.7171302
       0.7171233
       0.7141549
       0.7142903
       0.7145462
       0.7149205
       0.7153754
       0.7158577
       0.7163142
       0.7167000
       0.7169808
       0.7171298
       0.7171231
       0.7141557
       0.7142907
       0.7145465
       0.7149208
       0.7153755
       0.7158577
       0.7163140
       0.7166997
       0.7169804
       0.7171294
       0.7171229
       0.7141566
       0.7142911
       0.7145469
       0.7149210
       0.7153756
       0.7158576
       0.7163138
       0.7166993
       0.7169799
       0.7171289
       0.7171228
       0.7141575
       0.7142915
       0.7145472
       0.7149213
       0.7153757
       0.7158576
       0.7163136
       0.7166990
       0.7169795
       0.7171352
       0.7171294
       0.7141584
       0.7142920
       0.7145476
       0.7149215
       0.7153758
       0.7158575
       0.7163134
       0.7166987
       0.7169791
       0.7171347
       0.7171427
       0.8679875
       0.8680452
       0.8681985
       0.8684347
       0.8687292
       0.8690516
       0.8693694
       0.8696522
       0.8698750
       0.8700203
       0.8700817
       0.8679878
       0.8680454
       0.8681986
       0.8684348
       0.8687293
       0.8690517
       0.8693695
       0.8696523
       0.8698751
       0.8700204
       0.8700818
       0.8679881
       0.8680455
       0.8681987
       0.8684349
       0.8687295
       0.8690518
       0.8693696
       0.8696524
       0.8698752
       0.8700204
       0.8700818
       0.8679884
       0.8680456
       0.8681988
       0.8684350
       0.8687296
       0.8690519
       0.8693696
       0.8696525
       0.8698753
       0.8700205
       0.8700819
       0.8679887
       0.8680457
       0.8681989
       0.8684351
       0.8687296
       0.8690520
       0.8693697
       0.8696526
       0.8698753
       0.8700206
       0.8700820
       0.8679890
       0.8680458
       0.8681990
       0.8684352
       0.8687297
       0.8690521
       0.8693698
       0.8696526
       0.8698754
       0.8700207
       0.8700820
       0.8679893
       0.8680459
       0.8681991
       0.8684352
       0.8687298
       0.8690521