# vtk DataFile Version 2.0
3D Unstructured Grid of Linear Triangles
ASCII
DATASET UNSTRUCTURED_GRID
FIELD FieldData  1
TIME 1 1 double
       10805.71896
POINTS     1320 float
          0.0000E+00      2.7000E-02      1.0001E-03
          5.0000E-02      2.7000E-02      1.0000E-03
          1.0000E-01      2.7000E-02      1.0000E-03
          1.5000E-01      2.7000E-02      1.0000E-03
          2.0000E-01      2.7000E-02      1.0000E-03
          2.5000E-01      2.7000E-02      1.0000E-03
          3.0000E-01      2.7000E-02      1.0000E-03
          3.5000E-01      2.7000E-02      1.0000E-03
          4.0000E-01      2.7000E-02      1.0000E-03
          4.5000E-01      2.7000E-02      1.0000E-03
          5.0000E-01      2.7000E-02      1.0000E-03
          0.0000E+00      2.4000E-02      1.0001E-03
          5.0000E-02      2.4000E-02      1.0000E-03
          1.0000E-01      2.4000E-02      1.0000E-03
          1.5000E-01      2.4000E-02      1.0000E-03
          2.0000E-01      2.4000E-02      1.0000E-03
          2.5000E-01      2.4000E-02      1.0000E-03
          3.0000E-01      2.4000E-02      1.0000E-03
          3.5000E-01      2.4000E-02      1.0000E-03
          4.0000E-01      2.4000E-02      1.0000E-03
          4.5000E-01      2.4000E-02      1.0000E-03
          5.0000E-01      2.4000E-02      1.0000E-03
          0.0000E+00      2.1000E-02      1.0001E-03
          5.0000E-02      2.1000E-02      1.0000E-03
          1.0000E-01      2.1000E-02      1.0000E-03
          1.5000E-01      2.1000E-02      1.0000E-03
          2.0000E-01      2.1000E-02      1.0000E-03
          2.5000E-01      2.1000E-02      1.0000E-03
          3.0000E-01      2.1000E-02      1.0000E-03
          3.5000E-01      2.1000E-02      1.0000E-03
          4.0000E-01      2.1000E-02      1.0000E-03
          4.5000E-01      2.1000E-02      1.0000E-03
          5.0000E-01      2.1000E-02      1.0000E-03
          0.0000E+00      1.8000E-02      1.0001E-03
          5.0000E-02      1.8000E-02      1.0000E-03
          1.0000E-01      1.8000E-02      1.0000E-03
          1.5000E-01      1.8000E-02      1.0000E-03
          2.0000E-01      1.8000E-02      1.0000E-03
          2.5000E-01      1.8000E-02      1.0000E-03
          3.0000E-01      1.8000E-02      1.0000E-03
          3.5000E-01      1.8000E-02      1.0000E-03
          4.0000E-01      1.8000E-02      1.0000E-03
          4.5000E-01      1.8000E-02      1.0000E-03
          5.0000E-01      1.8000E-02      1.0000E-03
          0.0000E+00      1.5000E-02      1.0001E-03
          5.0000E-02      1.5000E-02      1.0000E-03
          1.0000E-01      1.5000E-02      1.0000E-03
          1.5000E-01      1.5000E-02      1.0000E-03
          2.0000E-01      1.5000E-02      1.0000E-03
          2.5000E-01      1.5000E-02      1.0000E-03
          3.0000E-01      1.5000E-02      1.0000E-03
          3.5000E-01      1.5000E-02      1.0000E-03
          4.0000E-01      1.5000E-02      1.0000E-03
          4.5000E-01      1.5000E-02      1.0000E-03
          5.0000E-01      1.5000E-02      1.0000E-03
          0.0000E+00      1.2000E-02      1.0001E-03
          5.0000E-02      1.2000E-02      1.0000E-03
          1.0000E-01      1.2000E-02      1.0000E-03
          1.5000E-01      1.2000E-02      1.0000E-03
          2.0000E-01      1.2000E-02      1.0000E-03
          2.5000E-01      1.2000E-02      1.0000E-03
          3.0000E-01      1.2000E-02      1.0000E-03
          3.5000E-01      1.2000E-02      1.0000E-03
          4.0000E-01      1.2000E-02      1.0000E-03
          4.5000E-01      1.2000E-02      1.0000E-03
          5.0000E-01      1.2000E-02      1.0000E-03
          0.0000E+00      9.0000E-03      1.0001E-03
          5.0000E-02      9.0000E-03      1.0000E-03
          1.0000E-01      9.0000E-03      1.0000E-03
          1.5000E-01      9.0000E-03      1.0000E-03
          2.0000E-01      9.0000E-03      1.0000E-03
          2.5000E-01      9.0000E-03      1.0000E-03
          3.0000E-01      9.0000E-03      1.0000E-03
          3.5000E-01      9.0000E-03      1.0000E-03
          4.0000E-01      9.0000E-03      1.0000E-03
          4.5000E-01      9.0000E-03      1.0000E-03
          5.0000E-01      9.0000E-03      1.0000E-03
          0.0000E+00      6.0000E-03      1.0001E-03
          5.0000E-02      6.0000E-03      1.0000E-03
          1.0000E-01      6.0000E-03      1.0000E-03
          1.5000E-01      6.0000E-03      1.0000E-03
          2.0000E-01      6.0000E-03      1.0000E-03
          2.5000E-01      6.0000E-03      1.0000E-03
          3.0000E-01      6.0000E-03      1.0000E-03
          3.5000E-01      6.0000E-03      1.0000E-03
          4.0000E-01      6.0000E-03      1.0000E-03
          4.5000E-01      6.0000E-03      1.0000E-03
          5.0000E-01      6.0000E-03      1.0000E-03
          0.0000E+00      3.0000E-03      1.0001E-03
          5.0000E-02      3.0000E-03      1.0000E-03
          1.0000E-01      3.0000E-03      1.0000E-03
          1.5000E-01      3.0000E-03      1.0000E-03
          2.0000E-01      3.0000E-03      1.0000E-03
          2.5000E-01      3.0000E-03      1.0000E-03
          3.0000E-01      3.0000E-03      1.0000E-03
          3.5000E-01      3.0000E-03      1.0000E-03
          4.0000E-01      3.0000E-03      1.0000E-03
          4.5000E-01      3.0000E-03      9.9667E-04
          5.0000E-01      3.0000E-03      9.9667E-04
          0.0000E+00      0.0000E+00      1.0001E-03
          5.0000E-02      0.0000E+00      1.0000E-03
          1.0000E-01      0.0000E+00      1.0000E-03
          1.5000E-01      0.0000E+00      1.0000E-03
          2.0000E-01      0.0000E+00      1.0000E-03
          2.5000E-01      0.0000E+00      1.0000E-03
          3.0000E-01      0.0000E+00      1.0000E-03
          3.5000E-01      0.0000E+00      1.0000E-03
          4.0000E-01      0.0000E+00      1.0000E-03
          4.5000E-01      0.0000E+00      9.9667E-04
          5.0000E-01      0.0000E+00      9.9000E-04
          0.0000E+00      2.7000E-02     -4.9000E-02
          5.0000E-02      2.7000E-02     -4.9000E-02
          1.0000E-01      2.7000E-02     -4.9000E-02
          1.5000E-01      2.7000E-02     -4.9000E-02
          2.0000E-01      2.7000E-02     -4.9000E-02
          2.5000E-01      2.7000E-02     -4.9000E-02
          3.0000E-01      2.7000E-02     -4.9000E-02
          3.5000E-01      2.7000E-02     -4.9000E-02
          4.0000E-01      2.7000E-02     -4.9000E-02
          4.5000E-01      2.7000E-02     -4.9000E-02
          5.0000E-01      2.7000E-02     -4.9000E-02
          0.0000E+00      2.4000E-02     -4.9000E-02
          5.0000E-02      2.4000E-02     -4.9000E-02
          1.0000E-01      2.4000E-02     -4.9000E-02
          1.5000E-01      2.4000E-02     -4.9000E-02
          2.0000E-01      2.4000E-02     -4.9000E-02
          2.5000E-01      2.4000E-02     -4.9000E-02
          3.0000E-01      2.4000E-02     -4.9000E-02
          3.5000E-01      2.4000E-02     -4.9000E-02
          4.0000E-01      2.4000E-02     -4.9000E-02
          4.5000E-01      2.4000E-02     -4.9000E-02
          5.0000E-01      2.4000E-02     -4.9000E-02
          0.0000E+00      2.1000E-02     -4.9000E-02
          5.0000E-02      2.1000E-02     -4.9000E-02
          1.0000E-01      2.1000E-02     -4.9000E-02
          1.5000E-01      2.1000E-02     -4.9000E-02
          2.0000E-01      2.1000E-02     -4.9000E-02
          2.5000E-01      2.1000E-02     -4.9000E-02
          3.0000E-01      2.1000E-02     -4.9000E-02
          3.5000E-01      2.1000E-02     -4.9000E-02
          4.0000E-01      2.1000E-02     -4.9000E-02
          4.5000E-01      2.1000E-02     -4.9000E-02
          5.0000E-01      2.1000E-02     -4.9000E-02
          0.0000E+00      1.8000E-02     -4.9000E-02
          5.0000E-02      1.8000E-02     -4.9000E-02
          1.0000E-01      1.8000E-02     -4.9000E-02
          1.5000E-01      1.8000E-02     -4.9000E-02
          2.0000E-01      1.8000E-02     -4.9000E-02
          2.5000E-01      1.8000E-02     -4.9000E-02
          3.0000E-01      1.8000E-02     -4.9000E-02
          3.5000E-01      1.8000E-02     -4.9000E-02
          4.0000E-01      1.8000E-02     -4.9000E-02
          4.5000E-01      1.8000E-02     -4.9000E-02
          5.0000E-01      1.8000E-02     -4.9000E-02
          0.0000E+00      1.5000E-02     -4.9000E-02
          5.0000E-02      1.5000E-02     -4.9000E-02
          1.0000E-01      1.5000E-02     -4.9000E-02
          1.5000E-01      1.5000E-02     -4.9000E-02
          2.0000E-01      1.5000E-02     -4.9000E-02
          2.5000E-01      1.5000E-02     -4.9000E-02
          3.0000E-01      1.5000E-02     -4.9000E-02
          3.5000E-01      1.5000E-02     -4.9000E-02
          4.0000E-01      1.5000E-02     -4.9000E-02
          4.5000E-01      1.5000E-02     -4.9000E-02
          5.0000E-01      1.5000E-02     -4.9000E-02
          0.0000E+00      1.2000E-02     -4.9000E-02
          5.0000E-02      1.2000E-02     -4.9000E-02
          1.0000E-01      1.2000E-02     -4.9000E-02
          1.5000E-01      1.2000E-02     -4.9000E-02
          2.0000E-01      1.2000E-02     -4.9000E-02
          2.5000E-01      1.2000E-02     -4.9000E-02
          3.0000E-01      1.2000E-02     -4.9000E-02
          3.5000E-01      1.2000E-02     -4.9000E-02
          4.0000E-01      1.2000E-02     -4.9000E-02
          4.5000E-01      1.2000E-02     -4.9000E-02
          5.0000E-01      1.2000E-02     -4.9000E-02
          0.0000E+00      9.0000E-03     -4.9000E-02
          5.0000E-02      9.0000E-03     -4.9000E-02
          1.0000E-01      9.0000E-03     -4.9000E-02
          1.5000E-01      9.0000E-03     -4.9000E-02
          2.0000E-01      9.0000E-03     -4.9000E-02
          2.5000E-01      9.0000E-03     -4.9000E-02
          3.0000E-01      9.0000E-03     -4.9000E-02
          3.5000E-01      9.0000E-03     -4.9000E-02
          4.0000E-01      9.0000E-03     -4.9000E-02
[...]
POINT_DATA     1320
SCALARS saturation float
LOOKUP_TABLE default
       0.4662352
       0.4662354
       0.4662597
       0.4680350
       0.5258609
       0.6702623
       0.8247532
       0.8385488
       0.8360508
       0.8300103
       0.7480677
       0.4662352
       0.4662354
       0.4662597
       0.4680121
       0.5257630
       0.6703934
       0.8253548
       0.8389102
       0.8363437
       0.8302403
       0.7480725
       0.4662352
       0.4662354
       0.4662596
       0.4679949
       0.5256743
       0.6705219
       0.8259807
       0.8392913
       0.8366547
       0.8304965
       0.7480783
       0.4662352
       0.4662354
       0.4662595
       0.4679815
       0.5255918
       0.6706447
       0.8264820
       0.8395961
       0.8368991
       0.8306802
       0.7480826
       0.4662352
       0.4662354
       0.4662594
       0.4679702
       0.5255128
       0.6707597
       0.8268028
       0.8397822
       0.8370383
       0.8307464
       0.7480834
       0.4662352
       0.4662354
       0.4662593
       0.4679597
       0.5254349
       0.6708673
       0.8269288
       0.8398368
       0.8370602
       0.8306803
       0.7480800
       0.4662352
       0.4662354
       0.4662592
       0.4679489
       0.5253555
       0.6709696
       0.8268703
       0.8397684
       0.8369723
       0.8304880
       0.7480729
       0.4662352
       0.4662354
       0.4662590
       0.4679365
       0.5252724
       0.6710712
       0.8266677
       0.8396100
       0.8368053
       0.8302017
       0.7480640
       0.4662352
       0.4662354
       0.4662590
       0.4679211
       0.5251832
       0.6711790
       0.8264240
       0.8394380
       0.8366285
       0.8298967
       0.7480578
       0.4662352
       0.4662354
       0.4662589
       0.4679009
       0.5250853
       0.6713018
       0.8263857
       0.8394125
       0.8365836
       0.8297341
       0.7480581
       0.4747657
       0.4747661
       0.4747999
       0.4773754
       0.5436729
       0.6903337
       0.7936283
       0.8317217
       0.8389594
       0.8271875
       0.7955368
       0.4747657
       0.4747661
       0.4748000
       0.4773476
       0.5436044
       0.6903263
       0.7936835
       0.8317696
       0.8389964
       0.8272282
       0.7955381
       0.4747657
       0.4747661
       0.4747999
       0.4773255
       0.5435373
       0.6903228
       0.7937430
       0.8318198
       0.8390346
       0.8272685
       0.7955403
       0.4747657
       0.4747661
       0.4747998
       0.4773073
       0.5434710
       0.6903194
       0.7938014
       0.8318687
       0.8390713
       0.8273059
       0.7955432
       0.4747657
       0.4747661
       0.4747996
       0.4772913
       0.5434052
       0.6903132
       0.7938544
       0.8319136
       0.8391041
       0.8273388
       0.7955462
       0.4747657
       0.4747661
       0.4747995
       0.4772761
       0.5433393
       0.6903025
       0.7939000
       0.8319534
       0.8391325
       0.8273671
       0.7955492
       0.4747657
       0.4747661
       0.4747994
       0.4772602
       0.5432731
       0.6902871
       0.7939388
       0.8319885
       0.8391571
       0.8273918
       0.7955519
       0.4747657
       0.4747661
       0.4747992
       0.4772422
       0.5432061
       0.6902686
       0.7939737
       0.8320215
       0.8391802
       0.8274158
       0.7955542
       0.4747657
       0.4747661
       0.4747992
       0.4772204
       0.5431382
       0.6902499
       0.7940100
       0.8320562
       0.8392054
       0.8274421
       0.7955554
       0.4747657
       0.4747661
       0.4747992
       0.4771931
       0.5430690
       0.6902345
       0.7940544
       0.8320969
       0.8392366
       0.8274770
       0.7955553
       0.4846085
       0.4846087
       0.4846240
       0.4858646
       0.5270003
       0.6395318
       0.7322285
       0.7867196
       0.8034252
       0.7859926
       0.7553544
       0.4846085
       0.4846087
       0.4846240
       0.4858482
       0.5268930
       0.6394768
       0.7322346
       0.7867569
       0.8034740
       0.7860507
       0.7553623
       0.4846085
       0.4846087
       0.4846240
       0.4858352
       0.5267876
       0.6394220
       0.7322397
       0.7867929
       0.8035212
       0.7861059
       0.7553663
       0.4846085
       0.4846087
       0.4846239
       0.4858245
       0.5266835
       0.6393672
       0.7322440
       0.7868278
       0.8035672
       0.7861591
       0.7553676
       0.4846085
       0.4846087
       0.4846238
       0.4858150
       0.5265802
       0.6393123
       0.7322477
       0.7868621
       0.8036125
       0.7862110
       0.7553672
       0.4846085
       0.4846087
       0.4846238
       0.4858059
       0.5264769
       0.6392571
       0.7322511
       0.7868960
       0.8036574
       0.7862625
       0.7553662
       0.4846085
       0.4846087
       0.4846237
       0.4857966
       0.5263732
       0.6392017
       0.7322545
       0.7869301
       0.8037026
       0.7863145
       0.7553657
       0.4846085
       0.4846087
       0.4846236
       0.4857861
       0.5262684
       0.6391460
       0.7322584
       0.7869650
       0.8037486
       0.7863679
       0.7553668
       0.4846085
       0.4846087
       0.4846236
       0.4857735
       0.5261620
       0.6390903
       0.7322633
       0.7870011
       0.8037962
       0.7864171
       0.7553613
       0.4846085
       0.4846087
       0.4846236
       0.4857577
       0.5260536
       0.6390347
       0.7322697
       0.7870392
       0.8038460
       0.7864764
       0.7553503
       0.4961418
       0.4961418
       0.4961433
       0.4962681
       0.5032404
       0.5534440
       0.6219423
       0.6708561
       0.6808942
       0.6457786
       0.5935557
       0.4961418
       0.4961418
       0.4961433
       0.4962669
       0.5031619
       0.5533006
       0.6218294
       0.6707716
       0.6808091
       0.6456614
       0.5932373
       0.4961418
       0.4961418
       0.4961433
       0.4962656
       0.5030897
       0.5531607
       0.6217184
       0.6706885
       0.6807261
       0.6455463
       0.5929326
       0.4961418
       0.4961418
       0.4961433
       0.4962643
       0.5030222
       0.5530233
       0.6216087
       0.6706064
       0.6806443
       0.6454327
       0.5926376
       0.4961418
       0.4961418
       0.4961433
       0.4962630
       0.5029574
       0.5528874
       0.6214996
       0.6705248
       0.6805634
       0.6453199
       0.5923481
       0.4961418
       0.4961418
       0.4961432
       0.4962618
       0.5028936
       0.5527517
       0.6213907
       0.6704433
       0.6804825
       0.6452072
       0.5920603
       0.4961418
       0.4961418
       0.4961432
       0.4962605
       0.5028291
       0.5526154
       0.6212813
       0.6703613
       0.6804012
       0.6450941
       0.5917703
       0.4961418
       0.4961418
       0.4961432
       0.4962593
       0.5027618
       0.5524772
       0.6211708
       0.6702786
       0.6803187
       0.6449797
       0.5914739
       0.4961418
       0.4961418
       0.4961432
       0.4962581
       0.5026902
       0.5523362
       0.6210587
       0.6701944
       0.6802344
       0.6448553
       0.5911605
       0.4961418
       0.4961418
       0.4961432
       0.4962570
       0.5026122
       0.5521911
       0.6209443
       0.6701085
       0.6801477
       0.6447366
       0.5908261
       0.5099160
       0.5099160
       0.5099160
       0.5099198
       0.5101042
       0.5130635
       0.5227888
       0.5326751
       0.5311436
       0.5196259
       0.5127046
       0.5099160
       0.5099160
       0.5099160
       0.5099198
       0.5101018
       0.5130162
       0.5226836
       0.5325528
       0.5310208
       0.5195299
       0.5126445
       0.5099160
       0.5099160
       0.5099160
       0.5099198
       0.5100996
       0.5129764
       0.5225846
       0.5324341
       0.5309032
       0.5194455
       0.5125997
       0.5099160
       0.5099160
       0.5099160
       0.5099198
       0.5100975
       0.5129417
       0.5224903
       0.5323181
       0.5307896
       0.5193698
       0.5125644
       0.5099160
       0.5099160
       0.5099160
       0.5099198
       0.5100955
       0.5129101
       0.5223988
       0.5322038
       0.5306786
       0.5192995
       0.5125344
       0.5099160
       0.5099160
       0.5099160
       0.5099197
       0.5100934
       0.5128796
       0.5223083
       0.5320900
       0.5305683
       0.5192310
       0.5125066
       0.5099160
       0.5099160
       0.5099160
       0.5099197
       0.5100914
       0.5128483
       0.5222170
       0.5319756
       0.5304572
       0.5191610
       0.5124782
       0.5099160
       0.5099160
       0.5099160
       0.5099197
       0.5100894
       0.5128143
       0.5221228
       0.5318596
       0.5303437
       0.5190860
       0.5124467
       0.5099160
       0.5099160
       0.5099160
       0.5099197
       0.5100874
       0.5127754
       0.5220241
       0.5317409
       0.5302261
       0.5189991
       0.5124068
       0.5099160
       0.5099160
       0.5099160
       0.5099197
       0.5100853
       0.5127294
       0.5219191
       0.5316186
       0.5301033
       0.5189040
       0.5123534
       0.5267702
       0.5267702
       0.5267702
       0.5267703
       0.5267738
       0.5268251
       0.5270050
       0.5271899
       0.5271306
       0.5269155
       0.5268113
       0.5267702
       0.5267702
       0.5267702
       0.5267703
       0.5267738
       0.5268252
       0.5270046
       0.5271888
       0.5271304
       0.5269159
       0.5268113
       0.5267702
       0.5267702
       0.5267702
       0.5267703
       0.5267738
       0.5268250
       0.5270037
       0.5271873
       0.5271296
       0.5269157
       0.5268111
       0.5267702
       0.5267702
       0.5267702
       0.5267703
       0.5267738
       0.5268247
       0.5270025
       0.5271855
       0.5271283
       0.5269152
       0.5268108
       0.5267702
       0.5267702
       0.5267702
       0.5267703
       0.5267738
       0.5268243
       0.5270011
       0.5271836
       0.5271268
       0.5269146
       0.5268105
       0.5267702
       0.5267702
       0.5267702
       0.5267703
       0.5267738
       0.5268240
       0.5269997
       0.5271816
       0.5271253
       0.5269140
       0.5268102
       0.5267702
       0.5267702
       0.5267702
       0.5267703
       0.5267738
       0.5268236
       0.5269984
       0.5271796
       0.5271238
       0.5269134
       0.5268099
       0.5267702
       0.5267702
       0.5267702
       0.5267703
       0.5267738
       0.5268233
       0.5269972
       0.5271779
       0.5271225
       0.5269129
       0.5268097
       0.5267702
       0.5267702
       0.5267702
       0.5267703
       0.5267737
       0.5268231
       0.5269963
       0.5271765
       0.5271217
       0.5269138
       0.5268106
       0.5267702
       0.5267702
       0.5267702
       0.5267703
       0.5267738
       0.5268232
       0.5269960
       0.5271756
       0.5271216
       0.5269141
       0.5268130
       0.5480596
       0.5480596
       0.5480596
       0.5480596
       0.5480596
       0.5480607
       0.5480644
       0.5480680
       0.5480667
       0.5480622
       0.5480601
       0.5480596
       0.5480596
       0.5480596
       0.5480596
       0.5480596
       0.5480607
       0.5480644
       0.5480681
       0.5480667
       0.5480622
       0.5480601
       0.5480596
       0.5480596
       0.5480596
       0.5480596
       0.5480596
       0.5480608
       0.5480644
       0.5480681
       0.5480667
       0.5480622
       0.5480601
       0.5480596
       0.5480596
       0.5480596
       0.5480596
       0.5480596
       0.5480608
       0.5480644
       0.5480681
       0.5480667
       0.5480622
       0.5480601
       0.5480596
       0.5480596
       0.5480596
       0.5480596
       0.5480597
       0.5480608
       0.5480644
       0.5480681
       0.5480667
       0.5480622
       0.5480601
       0.5480596
       0.5480596
       0.5480596
       0.5480596
       0.5480597
       0.5480608
       0.5480644
       0.5480681
       0.5480667
       0.5480622
       0.5480601
       0.5480596
       0.5480596
       0.5480596
       0.5480596
       0.5480597
       0.5480608
       0.5480644
       0.5480681
       0.5480667
       0.5480622
       0.5480601
       0.5480596
       0.5480596
       0.5480596
       0.5480596
       0.5480597
       0.5480608
       0.5480644
       0.5480681
       0.5480668
       0.5480623
       0.5480601
       0.5480596
       0.5480596
       0.5480596
       0.5480596
       0.5480597
       0.5480608
       0.5480644
       0.5480681
       0.5480668
       0.5480639
       0.5480617
       0.5480596
       0.5480596
       0.5480596
       0.5480596
       0.5480597
       0.5480608
       0.5480645
       0.5480681
       0.5480668
       0.5480639
       0.5480649
       0.5761456
       0.5761456
       0.5761456
       0.5761456
       0.5761456
       0.5761456
       0.5761457
       0.5761458
       0.5761457
       0.5761454
       0.5761453
       0.5761456
       0.5761456
       0.5761456
       0.5761456
       0.5761456
       0.5761457
       0.5761457
       0.5761458
       0.5761457
       0.5761455
       0.5761453
       0.5761456
       0.5761456
       0.5761456
       0.5761456
       0.5761456
       0.5761457
       0.5761458
       0.5761458
       0.5761457
       0.5761455
       0.5761453
       0.5761456
       0.5761456
       0.5761456
       0.5761456
       0.5761456
       0.5761457
       0.5761458
       0.5761458
       0.5761457
       0.5761455
       0.5761453
       0.5761456
       0.5761456
       0.5761456
       0.5761456
       0.5761456
       0.5761457
       0.5761458
       0.5761458
       0.5761457
       0.5761455
       0.5761453
       0.5761456
       0.5761456
       0.5761456
       0.5761456
       0.5761456
       0.5761457
       0.5761458
       0.5761458
       0.5761457
       0.5761455
       0.5761453
       0.5761456
       0.5761456
       0.5761456
       0.5761456
       0.5761456
       0.5761457
       0.5761458
       0.5761458
       0.5761457
       0.5761455
       0.5761453
       0.5761456
       0.5761456
       0.5761456
       0.5761456
       0.5761456
       0.5761457
       0.5761458
       0.5761458
       0.5761457
       0.5761455
       0.5761453
       0.5761456
       0.5761456
       0.5761456
       0.5761456
       0.5761456
       0.5761457
       0.5761458
       0.5761458
       0.5761457
       0.5761477
       0.5761475
       0.5761456
       0.5761456
       0.5761456
       0.5761456
       0.5761456
       0.5761457
       0.5761458
       0.5761458
       0.5761457
       0.5761477
       0.5761519
       0.6155973
       0.6155973
       0.6155973
       0.6155973
       0.6155973
       0.6155973
       0.6155973
       0.6155973
       0.6155972
       0.6155971
       0.6155971
       0.6155973
       0.6155973
       0.6155973
       0.6155973
       0.6155973
       0.6155973
       0.6155973
       0.6155973
       0.6155972
       0.6155971
       0.6155971
       0.6155973
       0.6155973
       0.6155973
       0.6155973
       0.6155973
       0.6155973
       0.6155973
       0.6155973
       0.6155972
       0.6155971
       0.6155971
       0.6155973
       0.6155973
       0.6155973
       0.6155973
       0.6155973
       0.6155973
       0.6155973
       0.6155973
       0.6155972
       0.6155971
       0.6155971
       0.6155973
       0.6155973
       0.6155973
       0.6155973
       0.6155973
       0.6155973
       0.6155973
       0.6155973
       0.6155972
       0.6155972
       0.6155971
       0.6155973
       0.6155973
       0.6155973
       0.6155973
       0.6155973
       0.6155973
       0.6155973
       0.6155973
       0.6155972
       0.6155972
       0.6155971
       0.6155973
       0.6155973
       0.6155973
       0.6155973
       0.6155973
       0.6155973
       0.6155973
       0.6155973
       0.6155972
       0.6155972
       0.6155971
       0.6155973
       0.6155973
       0.6155973
       0.6155973
       0.6155973
       0.6155973
       0.6155973
       0.6155973
       0.6155972
       0.6155972
       0.6155971
       0.6155973
       0.6155973
       0.6155973
       0.6155973
       0.6155973
       0.6155973
       0.6155973
       0.6155973
       0.6155972
       0.6156004
       0.6156003
       0.6155973
       0.6155973
       0.6155973
       0.6155973
       0.6155973
       0.6155973
       0.6155973
       0.6155973
       0.6155972
       0.6156004
       0.6156067
       0.6766808
       0.6766809
       0.6766809
       0.6766809
       0.6766809
       0.6766808
       0.6766808
       0.6766808
       0.6766808
       0.6766808
       0.6766808
       0.6766808
       0.6766809
       0.6766809
       0.6766809
       0.6766809
       0.6766809
       0.6766808
       0.6766808
       0.6766808
       0.6766808
       0.6766808
       0.6766808
       0.6766809
       0.6766809
       0.6766809
       0.6766809
       0.6766809
       0.6766809
       0.6766809
       0.6766808
       0.6766808
       0.6766808
       0.6766808
       0.6766809
       0.6766809
       0.6766809
       0.6766809
       0.6766809
       0.6766809
       0.6766809
       0.6766808
       0.6766808
       0.6766808
       0.6766808
       0.6766809
       0.6766809
       0.6766809
       0.6766809
       0.6766809
       0.6766809
       0.6766809
       0.6766809
       0.6766808
       0.6766808
       0.6766808
       0.6766809
       0.6766809
       0.6766809
       0.6766809
       0.6766809
       0.6766809
       0.6766809
       0.6766809
       0.6766808
       0.6766808
       0.6766808
       0.6766809
       0.6766809
       0.6766809
       0.6766809
       0.6766809
       0.6766809
       0.6766809
       0.6766809
       0.6766809
       0.6766809
       0.6766808
       0.6766809
       0.6766809
       0.6766809
       0.6766809
       0.6766809
       0.6766809
       0.6766809
       0.6766809
       0.6766809
       0.6766809
       0.6766808
       0.6766809
       0.6766809
       0.6766809
       0.6766809
       0.6766809
       0.6766809
       0.6766809
       0.6766809
       0.6766861
       0.6766861
       0.6766808
       0.6766808
       0.6766809
       0.6766809
       0.6766809
       0.6766809
       0.6766809
       0.6766809
       0.6766809
       0.6766861
       0.6766966
       0.7879602
       0.7879602
       0.7879602
       0.7879602
       0.7879602
       0.7879602
       0.7879602
       0.7879602
       0.7879602
       0.7879602
       0.7879602
       0.7879602
       0.7879602
       0.7879602
       0.7879602
       0.7879602
       0.7879602
       0.7879602
       0.7879602
       0.7879602
       0.7879602
       0.7879602
       0.7879602
       0.7879602
       0.7879602
       0.7879602
       0.7879602
       0.7879602
       0.7879602
       0.7879602
       0.7879602
       0.7879602
       0.7879602
       0.7879602
       0.7879602
       0.7879602
       0.7879602
       0.7879602
       0.7879602
       0.7879602
       0.7879602
       0.7879602
       0.7879602
       0.7879602
       0.7879602
       0.7879602
       0.7879602
       0.7879602
       0.7879603
       0.7879603
       0.7879603
       0.7879603
       0.7879603
       0.7879603
       0.7879603
       0.7879602
       0.7879602
       0.7879602
       0.7879602
       0.7879603
       0.7879603
       0.7879603
       0.7879603
       0.7879603
       0.7879603
       0.7879603
       0.7879602
       0.7879602
       0.7879602
       0.7879602
       0.7879603
       0.7879603