# vtk DataFile Version 2.0
3D Unstructured Grid of Linear Triangles
ASCII
DATASET UNSTRUCTURED_GRID
FIELD FieldData  1
TIME 1 1 double
      176405.71896
POINTS     1320 float
          0.0000E+00      2.7000E-02      1.0001E-03
          5.0000E-02      2.7000E-02      1.0000E-03
          1.0000E-01      2.7000E-02      1.0000E-03
          1.5000E-01      2.7000E-02      1.0000E-03
          2.0000E-01      2.7000E-02      1.0000E-03
          2.5000E-01      2.7000E-02      1.0000E-03
          3.0000E-01      2.7000E-02      1.0000E-03
          3.5000E-01      2.7000E-02      1.0000E-03
          4.0000E-01      2.7000E-02      1.0000E-03
          4.5000E-01      2.7000E-02      1.0000E-03
          5.0000E-01      2.7000E-02      1.0000E-03
          0.0000E+00      2.4000E-02      1.0001E-03
          5.0000E-02      2.4000E-02      1.0000E-03
          1.0000E-01      2.4000E-02      1.0000E-03
          1.5000E-01      2.4000E-02      1.0000E-03
          2.0000E-01      2.4000E-02      1.0000E-03
          2.5000E-01      2.4000E-02      1.0000E-03
          3.0000E-01      2.4000E-02      1.0000E-03
          3.5000E-01      2.4000E-02      1.0000E-03
          4.0000E-01      2.4000E-02      1.0000E-03
          4.5000E-01      2.4000E-02      1.0000E-03
          5.0000E-01      2.4000E-02      1.0000E-03
          0.0000E+00      2.1000E-02      1.0001E-03
          5.0000E-02      2.1000E-02      1.0000E-03
          1.0000E-01      2.1000E-02      1.0000E-03
          1.5000E-01      2.1000E-02      1.0000E-03
          2.0000E-01      2.1000E-02      1.0000E-03
          2.5000E-01      2.1000E-02      1.0000E-03
          3.0000E-01      2.1000E-02      1.0000E-03
          3.5000E-01      2.1000E-02      1.0000E-03
          4.0000E-01      2.1000E-02      1.0000E-03
          4.5000E-01      2.1000E-02      1.0000E-03
          5.0000E-01      2.1000E-02      1.0000E-03
          0.0000E+00      1.8000E-02      1.0001E-03
          5.0000E-02      1.8000E-02      1.0000E-03
          1.0000E-01      1.8000E-02      1.0000E-03
          1.5000E-01      1.8000E-02      1.0000E-03
          2.0000E-01      1.8000E-02      1.0000E-03
          2.5000E-01      1.8000E-02      1.0000E-03
          3.0000E-01      1.8000E-02      1.0000E-03
          3.5000E-01      1.8000E-02      1.0000E-03
          4.0000E-01      1.8000E-02      1.0000E-03
          4.5000E-01      1.8000E-02      1.0000E-03
          5.0000E-01      1.8000E-02      1.0000E-03
          0.0000E+00      1.5000E-02      1.0001E-03
          5.0000E-02      1.5000E-02      1.0000E-03
          1.0000E-01      1.5000E-02      1.0000E-03
          1.5000E-01      1.5000E-02      1.0000E-03
          2.0000E-01      1.5000E-02      1.0000E-03
          2.5000E-01      1.5000E-02      1.0000E-03
          3.0000E-01      1.5000E-02      1.0000E-03
          3.5000E-01      1.5000E-02      1.0000E-03
          4.0000E-01      1.5000E-02      1.0000E-03
          4.5000E-01      1.5000E-02      1.0000E-03
          5.0000E-01      1.5000E-02      1.0000E-03
          0.0000E+00      1.2000E-02      1.0001E-03
          5.0000E-02      1.2000E-02      1.0000E-03
          1.0000E-01      1.2000E-02      1.0000E-03
          1.5000E-01      1.2000E-02      1.0000E-03
          2.0000E-01      1.2000E-02      1.0000E-03
          2.5000E-01      1.2000E-02      1.0000E-03
          3.0000E-01      1.2000E-02      1.0000E-03
          3.5000E-01      1.2000E-02      1.0000E-03
          4.0000E-01      1.2000E-02      1.0000E-03
          4.5000E-01      1.2000E-02      1.0000E-03
          5.0000E-01      1.2000E-02      1.0000E-03
          0.0000E+00      9.0000E-03      1.0001E-03
          5.0000E-02      9.0000E-03      1.0000E-03
          1.0000E-01      9.0000E-03      1.0000E-03
          1.5000E-01      9.0000E-03      1.0000E-03
          2.0000E-01      9.0000E-03      1.0000E-03
          2.5000E-01      9.0000E-03      1.0000E-03
          3.0000E-01      9.0000E-03      1.0000E-03
          3.5000E-01      9.0000E-03      1.0000E-03
          4.0000E-01      9.0000E-03      1.0000E-03
          4.5000E-01      9.0000E-03      1.0000E-03
          5.0000E-01      9.0000E-03      1.0000E-03
          0.0000E+00      6.0000E-03      1.0001E-03
          5.0000E-02      6.0000E-03      1.0000E-03
          1.0000E-01      6.0000E-03      1.0000E-03
          1.5000E-01      6.0000E-03      1.0000E-03
          2.0000E-01      6.0000E-03      1.0000E-03
          2.5000E-01      6.0000E-03      1.0000E-03
          3.0000E-01      6.0000E-03      1.0000E-03
          3.5000E-01      6.0000E-03      1.0000E-03
          4.0000E-01      6.0000E-03      1.0000E-03
          4.5000E-01      6.0000E-03      1.0000E-03
          5.0000E-01      6.0000E-03      1.0000E-03
          0.0000E+00      3.0000E-03      1.0001E-03
          5.0000E-02      3.0000E-03      1.0000E-03
          1.0000E-01      3.0000E-03      1.0000E-03
          1.5000E-01      3.0000E-03      1.0000E-03
          2.0000E-01      3.0000E-03      1.0000E-03
          2.5000E-01      3.0000E-03      1.0000E-03
          3.0000E-01      3.0000E-03      1.0000E-03
          3.5000E-01      3.0000E-03      1.0000E-03
          4.0000E-01      3.0000E-03      1.0000E-03
          4.5000E-01      3.0000E-03      9.9667E-04
          5.0000E-01      3.0000E-03      9.9667E-04
          0.0000E+00      0.0000E+00      1.0001E-03
          5.0000E-02      0.0000E+00      1.0000E-03
          1.0000E-01      0.0000E+00      1.0000E-03
          1.5000E-01      0.0000E+00      1.0000E-03
          2.0000E-01      0.0000E+00      1.0000E-03
          2.5000E-01      0.0000E+00      1.0000E-03
          3.0000E-01      0.0000E+00      1.0000E-03
          3.5000E-01      0.0000E+00      1.0000E-03
          4.0000E-01      0.0000E+00      1.0000E-03
          4.5000E-01      0.0000E+00      9.9667E-04
          5.0000E-01      0.0000E+00      9.9000E-04
          0.0000E+00      2.7000E-02     -4.9000E-02
          5.0000E-02      2.7000E-02     -4.9000E-02
          1.0000E-01      2.7000E-02     -4.9000E-02
          1.5000E-01      2.7000E-02     -4.9000E-02
          2.0000E-01      2.7000E-02     -4.9000E-02
          2.5000E-01      2.7000E-02     -4.9000E-02
          3.0000E-01      2.7000E-02     -4.9000E-02
          3.5000E-01      2.7000E-02     -4.9000E-02
          4.0000E-01      2.7000E-02     -4.9000E-02
          4.5000E-01      2.7000E-02     -4.9000E-02
          5.0000E-01      2.7000E-02     -4.9000E-02
          0.0000E+00      2.4000E-02     -4.9000E-02
          5.0000E-02      2.4000E-02     -4.9000E-02
          1.0000E-01      2.4000E-02     -4.9000E-02
          1.5000E-01      2.4000E-02     -4.9000E-02
          2.0000E-01      2.4000E-02     -4.9000E-02
          2.5000E-01      2.4000E-02     -4.9000E-02
          3.0000E-01      2.4000E-02     -4.9000E-02
          3.5000E-01      2.4000E-02     -4.9000E-02
          4.0000E-01      2.4000E-02     -4.9000E-02
          4.5000E-01      2.4000E-02     -4.9000E-02
          5.0000E-01      2.4000E-02     -4.9000E-02
          0.0000E+00      2.1000E-02     -4.9000E-02
          5.0000E-02      2.1000E-02     -4.9000E-02
          1.0000E-01      2.1000E-02     -4.9000E-02
          1.5000E-01      2.1000E-02     -4.9000E-02
          2.0000E-01      2.1000E-02     -4.9000E-02
          2.5000E-01      2.1000E-02     -4.9000E-02
          3.0000E-01      2.1000E-02     -4.9000E-02
          3.5000E-01      2.1000E-02     -4.9000E-02
          4.0000E-01      2.1000E-02     -4.9000E-02
          4.5000E-01      2.1000E-02     -4.9000E-02
          5.0000E-01      2.1000E-02     -4.9000E-02
          0.0000E+00      1.8000E-02     -4.9000E-02
          5.0000E-02      1.8000E-02     -4.9000E-02
          1.0000E-01      1.8000E-02     -4.9000E-02
          1.5000E-01      1.8000E-02     -4.9000E-02
          2.0000E-01      1.8000E-02     -4.9000E-02
          2.5000E-01      1.8000E-02     -4.9000E-02
          3.0000E-01      1.8000E-02     -4.9000E-02
          3.5000E-01      1.8000E-02     -4.9000E-02
          4.0000E-01      1.8000E-02     -4.9000E-02
          4.5000E-01      1.8000E-02     -4.9000E-02
          5.0000E-01      1.8000E-02     -4.9000E-02
          0.0000E+00      1.5000E-02     -4.9000E-02
          5.0000E-02      1.5000E-02     -4.9000E-02
          1.0000E-01      1.5000E-02     -4.9000E-02
          1.5000E-01      1.5000E-02     -4.9000E-02
          2.0000E-01      1.5000E-02     -4.9000E-02
          2.5000E-01      1.5000E-02     -4.9000E-02
          3.0000E-01      1.5000E-02     -4.9000E-02
          3.5000E-01      1.5000E-02     -4.9000E-02
          4.0000E-01      1.5000E-02     -4.9000E-02
          4.5000E-01      1.5000E-02     -4.9000E-02
          5.0000E-01      1.5000E-02     -4.9000E-02
          0.0000E+00      1.2000E-02     -4.9000E-02
          5.0000E-02      1.2000E-02     -4.9000E-02
          1.0000E-01      1.2000E-02     -4.9000E-02
          1.5000E-01      1.2000E-02     -4.9000E-02
          2.0000E-01      1.2000E-02     -4.9000E-02
          2.5000E-01      1.2000E-02     -4.9000E-02
          3.0000E-01      1.2000E-02     -4.9000E-02
          3.5000E-01      1.2000E-02     -4.9000E-02
          4.0000E-01      1.2000E-02     -4.9000E-02
          4.5000E-01      1.2000E-02     -4.9000E-02
          5.0000E-01      1.2000E-02     -4.9000E-02
          0.0000E+00      9.0000E-03     -4.9000E-02
          5.0000E-02      9.0000E-03     -4.9000E-02
          1.0000E-01      9.0000E-03     -4.9000E-02
          1.5000E-01      9.0000E-03     -4.9000E-02
          2.0000E-01      9.0000E-03     -4.9000E-02
          2.5000E-01      9.0000E-03     -4.9000E-02
          3.0000E-01      9.0000E-03     -4.9000E-02
          3.5000E-01      9.0000E-03     -4.9000E-02
          4.0000E-01      9.0000E-03     -4.9000E-02
[...]
POINT_DATA     1320
SCALARS saturation float
LOOKUP_TABLE default
       0.5384876
       0.5390333
       0.5391493
       0.5391269
       0.5390446
       0.5389349
       0.5397458
       0.5396546
       0.5396192
       0.5397131
       0.5393035
       0.5384945
       0.5390377
       0.5391538
       0.5391315
       0.5390491
       0.5389403
       0.5425391
       0.5424488
       0.5424143
       0.5425129
       0.5393066
       0.5385010
       0.5390419
       0.5391582
       0.5391359
       0.5390535
       0.5389448
       0.5427983
       0.5427080
       0.5426734
       0.5427711
       0.5393090
       0.5385073
       0.5390461
       0.5391624
       0.5391402
       0.5390578
       0.5389491
       0.5428259
       0.5427356
       0.5427011
       0.5427986
       0.5393111
       0.5385135
       0.5390503
       0.5391666
       0.5391444
       0.5390621
       0.5389534
       0.5428323
       0.5427420
       0.5427075
       0.5428050
       0.5393133
       0.5385196
       0.5390544
       0.5391708
       0.5391487
       0.5390663
       0.5389576
       0.5428365
       0.5427462
       0.5427117
       0.5428094
       0.5393154
       0.5385257
       0.5390586
       0.5391751
       0.5391529
       0.5390706
       0.5389619
       0.5428383
       0.5427481
       0.5427136
       0.5428114
       0.5393175
       0.5385320
       0.5390628
       0.5391793
       0.5391572
       0.5390749
       0.5389661
       0.5428165
       0.5427260
       0.5426916
       0.5427896
       0.5393196
       0.5385386
       0.5390670
       0.5391837
       0.5391616
       0.5390793
       0.5389704
       0.5425340
       0.5424424
       0.5424082
       0.5425074
       0.5393226
       0.5385455
       0.5390714
       0.5391882
       0.5391661
       0.5390838
       0.5389739
       0.5393808
       0.5392915
       0.5392568
       0.5393567
       0.5393254
       0.5583869
       0.5583430
       0.5583242
       0.5582581
       0.5581480
       0.5580109
       0.5578698
       0.5577485
       0.5576713
       0.5576496
       0.5576192
       0.5583861
       0.5583420
       0.5583232
       0.5582571
       0.5581470
       0.5580099
       0.5578698
       0.5577485
       0.5576713
       0.5576496
       0.5576186
       0.5583853
       0.5583410
       0.5583222
       0.5582562
       0.5581461
       0.5580090
       0.5578691
       0.5577478
       0.5576706
       0.5576489
       0.5576180
       0.5583847
       0.5583401
       0.5583214
       0.5582553
       0.5581452
       0.5580081
       0.5578682
       0.5577469
       0.5576698
       0.5576480
       0.5576175
       0.5583840
       0.5583393
       0.5583205
       0.5582545
       0.5581444
       0.5580073
       0.5578674
       0.5577461
       0.5576689
       0.5576472
       0.5576169
       0.5583834
       0.5583384
       0.5583196
       0.5582536
       0.5581435
       0.5580065
       0.5578666
       0.5577453
       0.5576681
       0.5576464
       0.5576164
       0.5583827
       0.5583376
       0.5583188
       0.5582528
       0.5581427
       0.5580056
       0.5578657
       0.5577445
       0.5576673
       0.5576456
       0.5576159
       0.5583820
       0.5583367
       0.5583179
       0.5582519
       0.5581418
       0.5580047
       0.5578648
       0.5577436
       0.5576664
       0.5576448
       0.5576153
       0.5583813
       0.5583357
       0.5583170
       0.5582510
       0.5581409
       0.5580038
       0.5578637
       0.5577424
       0.5576653
       0.5576448
       0.5576158
       0.5583804
       0.5583347
       0.5583160
       0.5582500
       0.5581399
       0.5580028
       0.5578616
       0.5577404
       0.5576633
       0.5576428
       0.5576173
       0.5737417
       0.5736205
       0.5735310
       0.5734235
       0.5732856
       0.5731244
       0.5729577
       0.5728065
       0.5726859
       0.5725919
       0.5724784
       0.5737410
       0.5736199
       0.5735304
       0.5734229
       0.5732849
       0.5731238
       0.5729571
       0.5728058
       0.5726853
       0.5725913
       0.5724779
       0.5737404
       0.5736193
       0.5735298
       0.5734223
       0.5732843
       0.5731232
       0.5729565
       0.5728052
       0.5726847
       0.5725907
       0.5724775
       0.5737398
       0.5736186
       0.5735291
       0.5734217
       0.5732837
       0.5731226
       0.5729559
       0.5728046
       0.5726841
       0.5725901
       0.5724770
       0.5737392
       0.5736180
       0.5735285
       0.5734211
       0.5732831
       0.5731219
       0.5729553
       0.5728040
       0.5726835
       0.5725895
       0.5724765
       0.5737386
       0.5736174
       0.5735279
       0.5734204
       0.5732825
       0.5731213
       0.5729547
       0.5728034
       0.5726829
       0.5725889
       0.5724760
       0.5737379
       0.5736168
       0.5735273
       0.5734198
       0.5732818
       0.5731207
       0.5729541
       0.5728028
       0.5726823
       0.5725884
       0.5724755
       0.5737373
       0.5736161
       0.5735266
       0.5734192
       0.5732812
       0.5731201
       0.5729534
       0.5728022
       0.5726817
       0.5725878
       0.5724751
       0.5737367
       0.5736155
       0.5735260
       0.5734186
       0.5732806
       0.5731195
       0.5729528
       0.5728016
       0.5726811
       0.5725881
       0.5724754
       0.5737361
       0.5736149
       0.5735254
       0.5734179
       0.5732800
       0.5731189
       0.5729522
       0.5728010
       0.5726805
       0.5725875
       0.5724767
       0.5865172
       0.5863788
       0.5862533
       0.5861154
       0.5859535
       0.5857709
       0.5855816
       0.5854026
       0.5852456
       0.5851081
       0.5849727
       0.5865166
       0.5863783
       0.5862528
       0.5861150
       0.5859530
       0.5857704
       0.5855811
       0.5854021
       0.5852451
       0.5851076
       0.5849723
       0.5865161
       0.5863778
       0.5862523
       0.5861145
       0.5859525
       0.5857699
       0.5855806
       0.5854016
       0.5852447
       0.5851071
       0.5849719
       0.5865155
       0.5863773
       0.5862518
       0.5861140
       0.5859520
       0.5857694
       0.5855801
       0.5854011
       0.5852442
       0.5851067
       0.5849714
       0.5865150
       0.5863768
       0.5862513
       0.5861135
       0.5859515
       0.5857689
       0.5855796
       0.5854006
       0.5852437
       0.5851062
       0.5849710
       0.5865144
       0.5863763
       0.5862508
       0.5861130
       0.5859510
       0.5857684
       0.5855791
       0.5854001
       0.5852432
       0.5851057
       0.5849706
       0.5865139
       0.5863757
       0.5862503
       0.5861125
       0.5859505
       0.5857680
       0.5855786
       0.5853996
       0.5852427
       0.5851052
       0.5849701
       0.5865133
       0.5863752
       0.5862498
       0.5861120
       0.5859500
       0.5857675
       0.5855781
       0.5853992
       0.5852422
       0.5851047
       0.5849697
       0.5865128
       0.5863747
       0.5862493
       0.5861115
       0.5859495
       0.5857670
       0.5855776
       0.5853987
       0.5852417
       0.5851051
       0.5849700
       0.5865122
       0.5863742
       0.5862488
       0.5861110
       0.5859490
       0.5857665
       0.5855771
       0.5853982
       0.5852413
       0.5851046
       0.5849711
       0.5981733
       0.5979684
       0.5978027
       0.5976389
       0.5974593
       0.5972624
       0.5970576
       0.5968573
       0.5966683
       0.5964834
       0.5962803
       0.5981725
       0.5979677
       0.5978019
       0.5976381
       0.5974585
       0.5972617
       0.5970568
       0.5968565
       0.5966675
       0.5964826
       0.5962796
       0.5981717
       0.5979669
       0.5978011
       0.5976373
       0.5974577
       0.5972609
       0.5970561
       0.5968557
       0.5966668
       0.5964819
       0.5962789
       0.5981708
       0.5979661
       0.5978004
       0.5976366
       0.5974570
       0.5972601
       0.5970553
       0.5968550
       0.5966660
       0.5964811
       0.5962783
       0.5981700
       0.5979653
       0.5977996
       0.5976358
       0.5974562
       0.5972594
       0.5970546
       0.5968542
       0.5966652
       0.5964804
       0.5962776
       0.5981691
       0.5979645
       0.5977988
       0.5976351
       0.5974555
       0.5972586
       0.5970538
       0.5968535
       0.5966645
       0.5964796
       0.5962769
       0.5981683
       0.5979637
       0.5977981
       0.5976343
       0.5974547
       0.5972579
       0.5970530
       0.5968527
       0.5966637
       0.5964789
       0.5962762
       0.5981674
       0.5979629
       0.5977973
       0.5976335
       0.5974540
       0.5972571
       0.5970523
       0.5968520
       0.5966630
       0.5964781
       0.5962756
       0.5981666
       0.5979622
       0.5977965
       0.5976328
       0.5974532
       0.5972564
       0.5970515
       0.5968512
       0.5966622
       0.5964782
       0.5962757
       0.5981658
       0.5979614
       0.5977958
       0.5976320
       0.5974524
       0.5972556
       0.5970508
       0.5968505
       0.5966615
       0.5964774
       0.5962766
       0.6111823
       0.6108075
       0.6105746
       0.6103877
       0.6102051
       0.6100140
       0.6098156
       0.6096143
       0.6094054
       0.6091591
       0.6087909
       0.6111804
       0.6108056
       0.6105728
       0.6103859
       0.6102033
       0.6100123
       0.6098138
       0.6096125
       0.6094036
       0.6091573
       0.6087894
       0.6111786
       0.6108038
       0.6105710
       0.6103841
       0.6102016
       0.6100105
       0.6098121
       0.6096107
       0.6094018
       0.6091555
       0.6087880
       0.6111767
       0.6108020
       0.6105692
       0.6103823
       0.6101998
       0.6100087
       0.6098103
       0.6096089
       0.6094000
       0.6091537
       0.6087865
       0.6111749
       0.6108003
       0.6105675
       0.6103805
       0.6101980
       0.6100069
       0.6098085
       0.6096071
       0.6093983
       0.6091520
       0.6087850
       0.6111730
       0.6107985
       0.6105657
       0.6103788
       0.6101963
       0.6100052
       0.6098068
       0.6096054
       0.6093965
       0.6091502
       0.6087836
       0.6111712
       0.6107967
       0.6105639
       0.6103770
       0.6101945
       0.6100034
       0.6098050
       0.6096036
       0.6093947
       0.6091484
       0.6087821
       0.6111693
       0.6107949
       0.6105621
       0.6103752
       0.6101927
       0.6100016
       0.6098032
       0.6096018
       0.6093929
       0.6091466
       0.6087807
       0.6111675
       0.6107931
       0.6105603
       0.6103734
       0.6101909
       0.6099999
       0.6098014
       0.6096001
       0.6093912
       0.6091459
       0.6087804
       0.6111656
       0.6107913
       0.6105585
       0.6103716
       0.6101891
       0.6099981
       0.6097997
       0.6095983
       0.6093894
       0.6091441
       0.6087812
       0.6318959
       0.6313656
       0.6310942
       0.6309194
       0.6307743
       0.6306336
       0.6304896
       0.6303371
       0.6301600
       0.6299064
       0.6294320
       0.6318925
       0.6313626
       0.6310913
       0.6309164
       0.6307713
       0.6306307
       0.6304867
       0.6303342
       0.6301571
       0.6299036
       0.6294301
       0.6318893
       0.6313597
       0.6310883
       0.6309135
       0.6307684
       0.6306278
       0.6304838
       0.6303314
       0.6301543
       0.6299008
       0.6294281
       0.6318860
       0.6313568
       0.6310854
       0.6309106
       0.6307655
       0.6306249
       0.6304809
       0.6303286
       0.6301514
       0.6298980
       0.6294262
       0.6318828
       0.6313539
       0.6310825
       0.6309077
       0.6307627
       0.6306221
       0.6304781
       0.6303257
       0.6301486
       0.6298952
       0.6294242
       0.6318796
       0.6313510
       0.6310796
       0.6309048
       0.6307598
       0.6306192
       0.6304753
       0.6303229
       0.6301458
       0.6298924
       0.6294223
       0.6318763
       0.6313481
       0.6310767
       0.6309019
       0.6307569
       0.6306164
       0.6304724
       0.6303201
       0.6301430
       0.6298897
       0.6294203
       0.6318731
       0.6313451
       0.6310738
       0.6308990
       0.6307540
       0.6306135
       0.6304696
       0.6303173
       0.6301402
       0.6298869
       0.6294184
       0.6318698
       0.6313422
       0.6310709
       0.6308961
       0.6307511
       0.6306106
       0.6304667
       0.6303144
       0.6301374
       0.6298862
       0.6294187
       0.6318665
       0.6313392
       0.6310679
       0.6308931
       0.6307482
       0.6306077
       0.6304638
       0.6303115
       0.6301345
       0.6298833
       0.6294214
       0.6761310
       0.6758490
       0.6757142
       0.6756365
       0.6755791
       0.6755273
       0.6754750
       0.6754178
       0.6753460
       0.6752353
       0.6750288
       0.6761288
       0.6758475
       0.6757128
       0.6756351
       0.6755777
       0.6755259
       0.6754736
       0.6754165
       0.6753447
       0.6752340
       0.6750281
       0.6761266
       0.6758460
       0.6757114
       0.6756337
       0.6755763
       0.6755245
       0.6754723
       0.6754152
       0.6753434
       0.6752328
       0.6750274
       0.6761244
       0.6758446
       0.6757100
       0.6756324
       0.6755750
       0.6755232
       0.6754710
       0.6754138
       0.6753421
       0.6752316
       0.6750268
       0.6761223
       0.6758431
       0.6757086
       0.6756310
       0.6755736
       0.6755219
       0.6754696
       0.6754126
       0.6753408
       0.6752303
       0.6750261
       0.6761202
       0.6758417
       0.6757072
       0.6756296
       0.6755722
       0.6755205
       0.6754683
       0.6754113
       0.6753396
       0.6752291
       0.6750255
       0.6761180
       0.6758402
       0.6757058
       0.6756282
       0.6755709
       0.6755192
       0.6754670
       0.6754100
       0.6753383
       0.6752279
       0.6750248
       0.6761159
       0.6758388
       0.6757044
       0.6756268
       0.6755695
       0.6755178
       0.6754657
       0.6754087
       0.6753370
       0.6752267
       0.6750241
       0.6761137
       0.6758373
       0.6757029
       0.6756254
       0.6755681
       0.6755165
       0.6754643
       0.6754073
       0.6753357
       0.6752300
       0.6750282
       0.6761114
       0.6758358
       0.6757015
       0.6756240
       0.6755667
       0.6755151
       0.6754630
       0.6754060
       0.6753344
       0.6752287
       0.6750369
       0.7759242
       0.7759186
       0.7759114
       0.7759054
       0.7758995
       0.7758941
       0.7758882
       0.7758827
       0.7758767
       0.7758712
       0.7758681
       0.7759242
       0.7759186
       0.7759114
       0.7759055
       0.7758995
       0.7758941
       0.7758882
       0.7758827
       0.7758768
       0.7758712
       0.7758682
       0.7759242
       0.7759186
       0.7759114
       0.7759055
       0.7758996
       0.7758941
       0.7758883
       0.7758828
       0.7758768
       0.7758713
       0.7758682
       0.7759242
       0.7759186
       0.7759115
       0.7759055
       0.7758996
       0.7758941
       0.7758883
       0.7758828
       0.7758768
       0.7758713
       0.7758682
       0.7759241
       0.7759186
       0.7759115
       0.7759055
       0.7758996
       0.7758942
       0.7758883
       0.7758828
       0.7758769
       0.7758713
       0.7758682
       0.7759241
       0.7759186
       0.7759115
       0.7759055
       0.7758996
       0.7758942
       0.7758884
       0.7758829
       0.7758769
       0.7758714
       0.7758683
       0.7759241
       0.7759186
       0.7759115
       0.7759055
       0.7758996
       0.7758942
       0.7758884
       0.7758829
       0.7758769
       0.7758714
       0.7758683
       0.7759241
       0.7759186
       0.7759115
       0.7759055
       0.7758996
       0.7758942
       0.7758884
       0.7758829
       0.7758770
       0.7758714
       0.7758683
       0.7759241
       0.7759186
       0.7759115
       0.7759055
       0.7758996
       0.7758942
       0.7758884
       0.7758829
       0.7758770
       0.7758813
       0.7758782
       0.7759241
       0.7759186
       0.7759115
       0.7759056
       0.7758997
       0.7758942
       0.7758884
       0.7758829
       0.7758770
       0.7758813
       0.7758978
       0.9888887
       0.9888975
       0.9888970
       0.9888959
       0.9888921
       0.9888894
       0.9888851
       0.9888828
       0.9888799
       0.9888805
       0.9888856
       0.9888888
       0.9888976
       0.9888971
       0.9888960
       0.9888921
       0.9888895
       0.9888852
       0.9888828
       0.9888799
       0.9888806
       0.9888857
       0.9888888
       0.9888976
       0.9888971
       0.9888961
       0.9888922
       0.9888896
       0.9888852
       0.9888829
       0.9888800
       0.9888807
       0.9888857
       0.9888888
       0.9888977
       0.9888972
       0.9888962
       0.9888922
       0.9888896
       0.9888853
       0.9888830
       0.9888800
       0.9888808
       0.9888857
       0.9888889
       0.9888978
       0.9888972
       0.9888962
       0.9888922
       0.9888897
       0.9888853
       0.9888831
       0.9888801
       0.9888809
       0.9888858
       0.9888889
       0.9888978
       0.9888972
       0.9888963
       0.9888923
       0.9888898
       0.9888854
       0.9888832
       0.9888801
       0.9888810
       0.9888858
       0.9888889
       0.9888979
       0.9888972
       0.9888963
       0.9888923
       0.9888898
       0.9888854
       0.9888832
       0.9888802
       0.9888810
       0.9888858
       0.9888890
       0.9888980
       0.9888973
       0.9888964
       0.9888923
       0.9888899
       0.9888855
       0.9888833
       0.9888802
       0.9888811
       0.9888859
       0.9888890
       0.9888980
       0.9888973
       0.9888965
       0.9888924
       0.9888900
       0.9888855
       0.9888834
       0.9888803
       0.9888942
       0.9888989
       0.9888891
       0.9888981
       0.9888974
       0.9888965
       0.9888924
       0.9888900
       0.9888855
       0.9888834
       0.9888803
       0.9888943
       0.9889250
       1.0000000
       1.0000000
       1.0000000
       1.0000000
       1.0000000
       1.0000000
       1.0000000
       1.0000000
       1.0000000
       1.0000000
       1.0000000
       1.0000000
       1.0000000
       1.0000000
       1.0000000
       1.0000000
       1.0000000
       1.0000000
       1.0000000
       1.0000000
       1.0000000
       1.0000000
       1.0000000
       1.0000000
       1.0000000
       1.0000000
       1.0000000
       1.0000000
       1.0000000
       1.0000000
       1.0000000
       1.0000000
       1.0000000
       1.0000000
       1.0000000
       1.0000000
       1.0000000
       1.0000000
       1.0000000
       1.0000000
       1.0000000
       1.0000000
       1.0000000
       1.0000000
       1.0000000
       1.0000000
       1.0000000
       1.0000000
       1.0000000
       1.0000000
       1.0000000
       1.0000000
       1.0000000
       1.0000000
       1.0000000
       1.0000000
       1.0000000
       1.0000000
       1.0000000
       1.0000000
       1.0000000
       1.0000000
       1.0000000
       1.0000000
       1.0000000
       1.0000000
       1.0000000
       1.0000000
       1.0000000
       1.0000000
       1.0000000
       1.0000000