# vtk DataFile Version 2.0
3D Unstructured Grid of Linear Triangles
ASCII
DATASET UNSTRUCTURED_GRID
FIELD FieldData  1
TIME 1 1 double
       90005.71896
POINTS     1320 float
          0.0000E+00      2.7000E-02      1.0001E-03
          5.0000E-02      2.7000E-02      1.0000E-03
          1.0000E-01      2.7000E-02      1.0000E-03
          1.5000E-01      2.7000E-02      1.0000E-03
          2.0000E-01      2.7000E-02      1.0000E-03
          2.5000E-01      2.7000E-02      1.0000E-03
          3.0000E-01      2.7000E-02      1.0000E-03
          3.5000E-01      2.7000E-02      1.0000E-03
          4.0000E-01      2.7000E-02      1.0000E-03
          4.5000E-01      2.7000E-02      1.0000E-03
          5.0000E-01      2.7000E-02      1.0000E-03
          0.0000E+00      2.4000E-02      1.0001E-03
          5.0000E-02      2.4000E-02      1.0000E-03
          1.0000E-01      2.4000E-02      1.0000E-03
          1.5000E-01      2.4000E-02      1.0000E-03
          2.0000E-01      2.4000E-02      1.0000E-03
          2.5000E-01      2.4000E-02      1.0000E-03
          3.0000E-01      2.4000E-02      1.0000E-03
          3.5000E-01      2.4000E-02      1.0000E-03
          4.0000E-01      2.4000E-02      1.0000E-03
          4.5000E-01      2.4000E-02      1.0000E-03
          5.0000E-01      2.4000E-02      1.0000E-03
          0.0000E+00      2.1000E-02      1.0001E-03
          5.0000E-02      2.1000E-02      1.0000E-03
          1.0000E-01      2.1000E-02      1.0000E-03
          1.5000E-01      2.1000E-02      1.0000E-03
          2.0000E-01      2.1000E-02      1.0000E-03
          2.5000E-01      2.1000E-02      1.0000E-03
          3.0000E-01      2.1000E-02      1.0000E-03
          3.5000E-01      2.1000E-02      1.0000E-03
          4.0000E-01      2.1000E-02      1.0000E-03
          4.5000E-01      2.1000E-02      1.0000E-03
          5.0000E-01      2.1000E-02      1.0000E-03
          0.0000E+00      1.8000E-02      1.0001E-03
          5.0000E-02      1.8000E-02      1.0000E-03
          1.0000E-01      1.8000E-02      1.0000E-03
          1.5000E-01      1.8000E-02      1.0000E-03
          2.0000E-01      1.8000E-02      1.0000E-03
          2.5000E-01      1.8000E-02      1.0000E-03
          3.0000E-01      1.8000E-02      1.0000E-03
          3.5000E-01      1.8000E-02      1.0000E-03
          4.0000E-01      1.8000E-02      1.0000E-03
          4.5000E-01      1.8000E-02      1.0000E-03
          5.0000E-01      1.8000E-02      1.0000E-03
          0.0000E+00      1.5000E-02      1.0001E-03
          5.0000E-02      1.5000E-02      1.0000E-03
          1.0000E-01      1.5000E-02      1.0000E-03
          1.5000E-01      1.5000E-02      1.0000E-03
          2.0000E-01      1.5000E-02      1.0000E-03
          2.5000E-01      1.5000E-02      1.0000E-03
          3.0000E-01      1.5000E-02      1.0000E-03
          3.5000E-01      1.5000E-02      1.0000E-03
          4.0000E-01      1.5000E-02      1.0000E-03
          4.5000E-01      1.5000E-02      1.0000E-03
          5.0000E-01      1.5000E-02      1.0000E-03
          0.0000E+00      1.2000E-02      1.0001E-03
          5.0000E-02      1.2000E-02      1.0000E-03
          1.0000E-01      1.2000E-02      1.0000E-03
          1.5000E-01      1.2000E-02      1.0000E-03
          2.0000E-01      1.2000E-02      1.0000E-03
          2.5000E-01      1.2000E-02      1.0000E-03
          3.0000E-01      1.2000E-02      1.0000E-03
          3.5000E-01      1.2000E-02      1.0000E-03
          4.0000E-01      1.2000E-02      1.0000E-03
          4.5000E-01      1.2000E-02      1.0000E-03
          5.0000E-01      1.2000E-02      1.0000E-03
          0.0000E+00      9.0000E-03      1.0001E-03
          5.0000E-02      9.0000E-03      1.0000E-03
          1.0000E-01      9.0000E-03      1.0000E-03
          1.5000E-01      9.0000E-03      1.0000E-03
          2.0000E-01      9.0000E-03      1.0000E-03
          2.5000E-01      9.0000E-03      1.0000E-03
          3.0000E-01      9.0000E-03      1.0000E-03
          3.5000E-01      9.0000E-03      1.0000E-03
          4.0000E-01      9.0000E-03      1.0000E-03
          4.5000E-01      9.0000E-03      1.0000E-03
          5.0000E-01      9.0000E-03      1.0000E-03
          0.0000E+00      6.0000E-03      1.0001E-03
          5.0000E-02      6.0000E-03      1.0000E-03
          1.0000E-01      6.0000E-03      1.0000E-03
          1.5000E-01      6.0000E-03      1.0000E-03
          2.0000E-01      6.0000E-03      1.0000E-03
          2.5000E-01      6.0000E-03      1.0000E-03
          3.0000E-01      6.0000E-03      1.0000E-03
          3.5000E-01      6.0000E-03      1.0000E-03
          4.0000E-01      6.0000E-03      1.0000E-03
          4.5000E-01      6.0000E-03      1.0000E-03
          5.0000E-01      6.0000E-03      1.0000E-03
          0.0000E+00      3.0000E-03      1.0001E-03
          5.0000E-02      3.0000E-03      1.0000E-03
          1.0000E-01      3.0000E-03      1.0000E-03
          1.5000E-01      3.0000E-03      1.0000E-03
          2.0000E-01      3.0000E-03      1.0000E-03
          2.5000E-01      3.0000E-03      1.0000E-03
          3.0000E-01      3.0000E-03      1.0000E-03
          3.5000E-01      3.0000E-03      1.0000E-03
          4.0000E-01      3.0000E-03      1.0000E-03
          4.5000E-01      3.0000E-03      9.9667E-04
          5.0000E-01      3.0000E-03      9.9667E-04
          0.0000E+00      0.0000E+00      1.0001E-03
          5.0000E-02      0.0000E+00      1.0000E-03
          1.0000E-01      0.0000E+00      1.0000E-03
          1.5000E-01      0.0000E+00      1.0000E-03
          2.0000E-01      0.0000E+00      1.0000E-03
          2.5000E-01      0.0000E+00      1.0000E-03
          3.0000E-01      0.0000E+00      1.0000E-03
          3.5000E-01      0.0000E+00      1.0000E-03
          4.0000E-01      0.0000E+00      1.0000E-03
          4.5000E-01      0.0000E+00      9.9667E-04
          5.0000E-01      0.0000E+00      9.9000E-04
          0.0000E+00      2.7000E-02     -4.9000E-02
          5.0000E-02      2.7000E-02     -4.9000E-02
          1.0000E-01      2.7000E-02     -4.9000E-02
          1.5000E-01      2.7000E-02     -4.9000E-02
          2.0000E-01      2.7000E-02     -4.9000E-02
          2.5000E-01      2.7000E-02     -4.9000E-02
          3.0000E-01      2.7000E-02     -4.9000E-02
          3.5000E-01      2.7000E-02     -4.9000E-02
          4.0000E-01      2.7000E-02     -4.9000E-02
          4.5000E-01      2.7000E-02     -4.9000E-02
          5.0000E-01      2.7000E-02     -4.9000E-02
          0.0000E+00      2.4000E-02     -4.9000E-02
          5.0000E-02      2.4000E-02     -4.9000E-02
          1.0000E-01      2.4000E-02     -4.9000E-02
          1.5000E-01      2.4000E-02     -4.9000E-02
          2.0000E-01      2.4000E-02     -4.9000E-02
          2.5000E-01      2.4000E-02     -4.9000E-02
          3.0000E-01      2.4000E-02     -4.9000E-02
          3.5000E-01      2.4000E-02     -4.9000E-02
          4.0000E-01      2.4000E-02     -4.9000E-02
          4.5000E-01      2.4000E-02     -4.9000E-02
          5.0000E-01      2.4000E-02     -4.9000E-02
          0.0000E+00      2.1000E-02     -4.9000E-02
          5.0000E-02      2.1000E-02     -4.9000E-02
          1.0000E-01      2.1000E-02     -4.9000E-02
          1.5000E-01      2.1000E-02     -4.9000E-02
          2.0000E-01      2.1000E-02     -4.9000E-02
          2.5000E-01      2.1000E-02     -4.9000E-02
          3.0000E-01      2.1000E-02     -4.9000E-02
          3.5000E-01      2.1000E-02     -4.9000E-02
          4.0000E-01      2.1000E-02     -4.9000E-02
          4.5000E-01      2.1000E-02     -4.9000E-02
          5.0000E-01      2.1000E-02     -4.9000E-02
          0.0000E+00      1.8000E-02     -4.9000E-02
          5.0000E-02      1.8000E-02     -4.9000E-02
          1.0000E-01      1.8000E-02     -4.9000E-02
          1.5000E-01      1.8000E-02     -4.9000E-02
          2.0000E-01      1.8000E-02     -4.9000E-02
          2.5000E-01      1.8000E-02     -4.9000E-02
          3.0000E-01      1.8000E-02     -4.9000E-02
          3.5000E-01      1.8000E-02     -4.9000E-02
          4.0000E-01      1.8000E-02     -4.9000E-02
          4.5000E-01      1.8000E-02     -4.9000E-02
          5.0000E-01      1.8000E-02     -4.9000E-02
          0.0000E+00      1.5000E-02     -4.9000E-02
          5.0000E-02      1.5000E-02     -4.9000E-02
          1.0000E-01      1.5000E-02     -4.9000E-02
          1.5000E-01      1.5000E-02     -4.9000E-02
          2.0000E-01      1.5000E-02     -4.9000E-02
          2.5000E-01      1.5000E-02     -4.9000E-02
          3.0000E-01      1.5000E-02     -4.9000E-02
          3.5000E-01      1.5000E-02     -4.9000E-02
          4.0000E-01      1.5000E-02     -4.9000E-02
          4.5000E-01      1.5000E-02     -4.9000E-02
          5.0000E-01      1.5000E-02     -4.9000E-02
          0.0000E+00      1.2000E-02     -4.9000E-02
          5.0000E-02      1.2000E-02     -4.9000E-02
          1.0000E-01      1.2000E-02     -4.9000E-02
          1.5000E-01      1.2000E-02     -4.9000E-02
          2.0000E-01      1.2000E-02     -4.9000E-02
          2.5000E-01      1.2000E-02     -4.9000E-02
          3.0000E-01      1.2000E-02     -4.9000E-02
          3.5000E-01      1.2000E-02     -4.9000E-02
          4.0000E-01      1.2000E-02     -4.9000E-02
          4.5000E-01      1.2000E-02     -4.9000E-02
          5.0000E-01      1.2000E-02     -4.9000E-02
          0.0000E+00      9.0000E-03     -4.9000E-02
          5.0000E-02      9.0000E-03     -4.9000E-02
          1.0000E-01      9.0000E-03     -4.9000E-02
          1.5000E-01      9.0000E-03     -4.9000E-02
          2.0000E-01      9.0000E-03     -4.9000E-02
          2.5000E-01      9.0000E-03     -4.9000E-02
          3.0000E-01      9.0000E-03     -4.9000E-02
          3.5000E-01      9.0000E-03     -4.9000E-02
          4.0000E-01      9.0000E-03     -4.9000E-02
[...]
POINT_DATA     1320
SCALARS saturation float
LOOKUP_TABLE default
       0.4787144
       0.4805941
       0.4945173
       0.5113910
       0.5242399
       0.5326235
       0.5369593
       0.5400127
       0.5417832
       0.5428049
       0.5427399
       0.4769123
       0.4788566
       0.4928289
       0.5097792
       0.5227017
       0.5311383
       0.5326121
       0.5357391
       0.5375559
       0.5386117
       0.5420964
       0.4768596
       0.4787938
       0.4927572
       0.5096961
       0.5226056
       0.5310322
       0.5322633
       0.5353770
       0.5371860
       0.5382366
       0.5420389
       0.4768643
       0.4787904
       0.4927542
       0.5096950
       0.5226036
       0.5310286
       0.5322392
       0.5353504
       0.5371576
       0.5382070
       0.5420357
       0.4768707
       0.4787892
       0.4927541
       0.5096982
       0.5226077
       0.5310326
       0.5322415
       0.5353522
       0.5371592
       0.5382084
       0.5420375
       0.4768771
       0.4787881
       0.4927541
       0.5097016
       0.5226121
       0.5310371
       0.5322459
       0.5353566
       0.5371635
       0.5382128
       0.5420398
       0.4768835
       0.4787869
       0.4927541
       0.5097050
       0.5226164
       0.5310414
       0.5322517
       0.5353625
       0.5371696
       0.5382190
       0.5420419
       0.4768881
       0.4787846
       0.4927525
       0.5097060
       0.5226174
       0.5310415
       0.5322723
       0.5353845
       0.5371926
       0.5382427
       0.5420420
       0.4768360
       0.4787512
       0.4927147
       0.5096631
       0.5225672
       0.5309850
       0.5324746
       0.5355945
       0.5374076
       0.5384616
       0.5420213
       0.4750320
       0.4778355
       0.4918169
       0.5087946
       0.5217261
       0.5301658
       0.5349101
       0.5380046
       0.5398000
       0.5408428
       0.5417604
       0.4798517
       0.4851063
       0.5005090
       0.5188012
       0.5333702
       0.5432812
       0.5495690
       0.5533897
       0.5556037
       0.5567646
       0.5571097
       0.4798585
       0.4851052
       0.5005081
       0.5188017
       0.5333705
       0.5432809
       0.5495674
       0.5533878
       0.5556016
       0.5567623
       0.5571093
       0.4798653
       0.4851044
       0.5005076
       0.5188026
       0.5333712
       0.5432810
       0.5495668
       0.5533869
       0.5556006
       0.5567612
       0.5571090
       0.4798719
       0.4851037
       0.5005072
       0.5188036
       0.5333720
       0.5432811
       0.5495665
       0.5533863
       0.5555998
       0.5567604
       0.5571088
       0.4798785
       0.4851030
       0.5005067
       0.5188045
       0.5333728
       0.5432813
       0.5495663
       0.5533858
       0.5555992
       0.5567596
       0.5571086
       0.4798850
       0.4851023
       0.5005062
       0.5188055
       0.5333736
       0.5432815
       0.5495660
       0.5533853
       0.5555985
       0.5567589
       0.5571085
       0.4798916
       0.4851016
       0.5005057
       0.5188065
       0.5333744
       0.5432817
       0.5495658
       0.5533848
       0.5555978
       0.5567581
       0.5571083
       0.4798983
       0.4851009
       0.5005053
       0.5188074
       0.5333752
       0.5432819
       0.5495655
       0.5533842
       0.5555971
       0.5567574
       0.5571081
       0.4799050
       0.4851002
       0.5005048
       0.5188083
       0.5333759
       0.5432820
       0.5495653
       0.5533838
       0.5555965
       0.5567578
       0.5571089
       0.4799119
       0.4850992
       0.5005041
       0.5188090
       0.5333764
       0.5432819
       0.5495657
       0.5533839
       0.5555965
       0.5567577
       0.5571106
       0.4909163
       0.4964666
       0.5117677
       0.5298808
       0.5449446
       0.5556878
       0.5627772
       0.5672132
       0.5698235
       0.5711637
       0.5715093
       0.4909237
       0.4964658
       0.5117671
       0.5298815
       0.5449454
       0.5556883
       0.5627773
       0.5672130
       0.5698231
       0.5711632
       0.5715093
       0.4909310
       0.4964650
       0.5117665
       0.5298822
       0.5449463
       0.5556887
       0.5627774
       0.5672128
       0.5698227
       0.5711627
       0.5715094
       0.4909380
       0.4964644
       0.5117659
       0.5298828
       0.5449471
       0.5556892
       0.5627774
       0.5672126
       0.5698224
       0.5711622
       0.5715094
       0.4909450
       0.4964637
       0.5117652
       0.5298835
       0.5449480
       0.5556896
       0.5627775
       0.5672124
       0.5698220
       0.5711618
       0.5715094
       0.4909519
       0.4964631
       0.5117646
       0.5298842
       0.5449488
       0.5556901
       0.5627776
       0.5672122
       0.5698216
       0.5711613
       0.5715094
       0.4909589
       0.4964624
       0.5117640
       0.5298849
       0.5449496
       0.5556905
       0.5627776
       0.5672120
       0.5698212
       0.5711608
       0.5715094
       0.4909660
       0.4964617
       0.5117634
       0.5298856
       0.5449505
       0.5556910
       0.5627777
       0.5672118
       0.5698209
       0.5711603
       0.5715094
       0.4909732
       0.4964610
       0.5117628
       0.5298863
       0.5449513
       0.5556914
       0.5627778
       0.5672116
       0.5698205
       0.5711607
       0.5715102
       0.4909807
       0.4964602
       0.5117621
       0.5298870
       0.5449522
       0.5556919
       0.5627778
       0.5672114
       0.5698201
       0.5711602
       0.5715119
       0.5032289
       0.5083782
       0.5223741
       0.5394275
       0.5543579
       0.5655428
       0.5732367
       0.5782138
       0.5812141
       0.5827769
       0.5832106
       0.5032359
       0.5083776
       0.5223733
       0.5394278
       0.5543586
       0.5655433
       0.5732370
       0.5782139
       0.5812140
       0.5827766
       0.5832109
       0.5032428
       0.5083770
       0.5223725
       0.5394281
       0.5543593
       0.5655439
       0.5732372
       0.5782139
       0.5812139
       0.5827764
       0.5832111
       0.5032495
       0.5083765
       0.5223717
       0.5394283
       0.5543600
       0.5655444
       0.5732375
       0.5782140
       0.5812138
       0.5827762
       0.5832114
       0.5032561
       0.5083760
       0.5223709
       0.5394286
       0.5543607
       0.5655449
       0.5732378
       0.5782140
       0.5812136
       0.5827759
       0.5832116
       0.5032627
       0.5083755
       0.5223701
       0.5394289
       0.5543613
       0.5655455
       0.5732381
       0.5782141
       0.5812135
       0.5827757
       0.5832119
       0.5032693
       0.5083751
       0.5223694
       0.5394292
       0.5543620
       0.5655460
       0.5732384
       0.5782141
       0.5812134
       0.5827755
       0.5832122
       0.5032761
       0.5083746
       0.5223686
       0.5394294
       0.5543627
       0.5655466
       0.5732386
       0.5782142
       0.5812133
       0.5827753
       0.5832124
       0.5032829
       0.5083740
       0.5223678
       0.5394297
       0.5543634
       0.5655471
       0.5732389
       0.5782142
       0.5812132
       0.5827758
       0.5832134
       0.5032900
       0.5083734
       0.5223670
       0.5394300
       0.5543641
       0.5655477
       0.5732392
       0.5782143
       0.5812131
       0.5827755
       0.5832150
       0.5171772
       0.5214654
       0.5332662
       0.5484303
       0.5625823
       0.5737895
       0.5818557
       0.5872661
       0.5906200
       0.5924048
       0.5929238
       0.5171834
       0.5214651
       0.5332652
       0.5484299
       0.5625825
       0.5737898
       0.5818559
       0.5872661
       0.5906200
       0.5924047
       0.5929242
       0.5171893
       0.5214648
       0.5332643
       0.5484296
       0.5625827
       0.5737901
       0.5818562
       0.5872662
       0.5906199
       0.5924045
       0.5929246
       0.5171952
       0.5214646
       0.5332634
       0.5484292
       0.5625829
       0.5737904
       0.5818564
       0.5872663
       0.5906199
       0.5924044
       0.5929251
       0.5172009
       0.5214644
       0.5332624
       0.5484289
       0.5625831
       0.5737908
       0.5818566
       0.5872664
       0.5906198
       0.5924043
       0.5929255
       0.5172067
       0.5214642
       0.5332615
       0.5484285
       0.5625833
       0.5737911
       0.5818568
       0.5872665
       0.5906198
       0.5924041
       0.5929259
       0.5172125
       0.5214641
       0.5332606
       0.5484282
       0.5625834
       0.5737914
       0.5818571
       0.5872666
       0.5906198
       0.5924040
       0.5929263
       0.5172183
       0.5214638
       0.5332597
       0.5484279
       0.5625836
       0.5737917
       0.5818573
       0.5872667
       0.5906197
       0.5924039
       0.5929267
       0.5172243
       0.5214636
       0.5332587
       0.5484275
       0.5625838
       0.5737920
       0.5818575
       0.5872668
       0.5906197
       0.5924043
       0.5929277
       0.5172304
       0.5214633
       0.5332578
       0.5484272
       0.5625840
       0.5737923
       0.5818577
       0.5872668
       0.5906196
       0.5924042
       0.5929293
       0.5340684
       0.5372754
       0.5462777
       0.5586301
       0.5710847
       0.5816315
       0.5896410
       0.5952430
       0.5988251
       0.6007651
       0.6013114
       0.5340734
       0.5372755
       0.5462769
       0.5586291
       0.5710841
       0.5816312
       0.5896407
       0.5952427
       0.5988248
       0.6007647
       0.6013118
       0.5340782
       0.5372756
       0.5462760
       0.5586281
       0.5710834
       0.5816308
       0.5896405
       0.5952425
       0.5988245
       0.6007644
       0.6013121
       0.5340830
       0.5372758
       0.5462751
       0.5586271
       0.5710827
       0.5816304
       0.5896402
       0.5952423
       0.5988243
       0.6007641
       0.6013125
       0.5340877
       0.5372760
       0.5462743
       0.5586261
       0.5710821
       0.5816300
       0.5896399
       0.5952420
       0.5988240
       0.6007638
       0.6013128
       0.5340923
       0.5372761
       0.5462734
       0.5586251
       0.5710814
       0.5816296
       0.5896397
       0.5952418
       0.5988237
       0.6007635
       0.6013132
       0.5340970
       0.5372763
       0.5462726
       0.5586241
       0.5710807
       0.5816292
       0.5896394
       0.5952415
       0.5988234
       0.6007632
       0.6013135
       0.5341018
       0.5372765
       0.5462717
       0.5586231
       0.5710801
       0.5816289
       0.5896392
       0.5952413
       0.5988232
       0.6007629
       0.6013139
       0.5341066
       0.5372766
       0.5462709
       0.5586221
       0.5710794
       0.5816285
       0.5896389
       0.5952410
       0.5988229
       0.6007631
       0.6013148
       0.5341115
       0.5372767
       0.5462700
       0.5586211
       0.5710787
       0.5816281
       0.5896386
       0.5952408
       0.5988226
       0.6007628
       0.6013163
       0.5562638
       0.5583732
       0.5643324
       0.5730455
       0.5826189
       0.5914107
       0.5985505
       0.6038099
       0.6072940
       0.6091913
       0.6096120
       0.5562675
       0.5583737
       0.5643319
       0.5730442
       0.5826173
       0.5914091
       0.5985490
       0.6038086
       0.6072927
       0.6091901
       0.6096117
       0.5562712
       0.5583742
       0.5643315
       0.5730429
       0.5826156
       0.5914075
       0.5985476
       0.6038073
       0.6072915
       0.6091889
       0.6096114
       0.5562748
       0.5583747
       0.5643311
       0.5730417
       0.5826140
       0.5914060
       0.5985461
       0.6038060
       0.6072903
       0.6091878
       0.6096111
       0.5562784
       0.5583753
       0.5643306
       0.5730404
       0.5826125
       0.5914044
       0.5985447
       0.6038047
       0.6072891
       0.6091866
       0.6096108
       0.5562820
       0.5583758
       0.5643302
       0.5730392
       0.5826109
       0.5914028
       0.5985433
       0.6038034
       0.6072879
       0.6091854
       0.6096105
       0.5562856
       0.5583764
       0.5643297
       0.5730379
       0.5826093
       0.5914012
       0.5985419
       0.6038021
       0.6072866
       0.6091842
       0.6096102
       0.5562892
       0.5583769
       0.5643293
       0.5730366
       0.5826077
       0.5913997
       0.5985404
       0.6038008
       0.6072854
       0.6091831
       0.6096100
       0.5562928
       0.5583774
       0.5643288
       0.5730354
       0.5826061
       0.5913981
       0.5985390
       0.6037995
       0.6072842
       0.6091826
       0.6096104
       0.5562966
       0.5583779
       0.5643284
       0.5730341
       0.5826044
       0.5913965
       0.5985375
       0.6037981
       0.6072829
       0.6091814
       0.6096115
       0.5875167
       0.5886831
       0.5918690
       0.5967334
       0.6025060
       0.6082819
       0.6133553
       0.6173359
       0.6200799
       0.6215452
       0.6216196
       0.5875194
       0.5886839
       0.5918692
       0.5967326
       0.6025043
       0.6082795
       0.6133524
       0.6173329
       0.6200769
       0.6215422
       0.6216179
       0.5875220
       0.5886847
       0.5918693
       0.5967319
       0.6025026
       0.6082771
       0.6133497
       0.6173300
       0.6200739
       0.6215392
       0.6216162
       0.5875246
       0.5886855
       0.5918695
       0.5967311
       0.6025009
       0.6082747
       0.6133469
       0.6173270
       0.6200709
       0.6215363
       0.6216145
       0.5875271
       0.5886863
       0.5918696
       0.5967303
       0.6024992
       0.6082723
       0.6133442
       0.6173241
       0.6200679
       0.6215333
       0.6216128
       0.5875297
       0.5886871
       0.5918698
       0.5967296
       0.6024975
       0.6082700
       0.6133414
       0.6173212
       0.6200650
       0.6215304
       0.6216111
       0.5875322
       0.5886879
       0.5918699
       0.5967288
       0.6024958
       0.6082676
       0.6133387
       0.6173183
       0.6200620
       0.6215275
       0.6216094
       0.5875348
       0.5886887
       0.5918701
       0.5967280
       0.6024941
       0.6082652
       0.6133359
       0.6173154
       0.6200590
       0.6215245
       0.6216077
       0.5875374
       0.5886894
       0.5918702
       0.5967273
       0.6024924
       0.6082629
       0.6133331
       0.6173124
       0.6200560
       0.6215228
       0.6216074
       0.5875400
       0.5886902
       0.5918704
       0.5967265
       0.6024907
       0.6082604
       0.6133303
       0.6173094
       0.6200530
       0.6215198
       0.6216085
       0.6341578
       0.6346687
       0.6359000
       0.6377891
       0.6401216
       0.6425915
       0.6448971
       0.6468055
       0.6481619
       0.6488482
       0.6486926
       0.6341596
       0.6346695
       0.6359006
       0.6377892
       0.6401210
       0.6425901
       0.6448951
       0.6468029
       0.6481590
       0.6488451
       0.6486909
       0.6341613
       0.6346703
       0.6359011
       0.6377892
       0.6401203
       0.6425888
       0.6448930
       0.6468004
       0.6481560
       0.6488420
       0.6486892
       0.6341631
       0.6346711
       0.6359016
       0.6377893
       0.6401197
       0.6425874
       0.6448910
       0.6467978
       0.6481531
       0.6488390
       0.6486875
       0.6341648
       0.6346719
       0.6359021
       0.6377893
       0.6401191
       0.6425861
       0.6448890
       0.6467953
       0.6481503
       0.6488360
       0.6486858
       0.6341665
       0.6346727
       0.6359026
       0.6377893
       0.6401184
       0.6425847
       0.6448870
       0.6467927
       0.6481474
       0.6488330
       0.6486842
       0.6341682
       0.6346735
       0.6359031
       0.6377893
       0.6401178
       0.6425833
       0.6448849
       0.6467902
       0.6481445
       0.6488300
       0.6486825
       0.6341699
       0.6346744
       0.6359037
       0.6377894
       0.6401172
       0.6425820
       0.6448829
       0.6467876
       0.6481416
       0.6488270
       0.6486808
       0.6341717
       0.6346752
       0.6359042
       0.6377894
       0.6401165
       0.6425806
       0.6448809
       0.6467851
       0.6481387
       0.6488269
       0.6486823
       0.6341735
       0.6346760
       0.6359047
       0.6377894
       0.6401159
       0.6425792
       0.6448788
       0.6467825
       0.6481357
       0.6488238
       0.6486869
       0.7105493
       0.7107090
       0.7110057
       0.7114451
       0.7119878
       0.7125709
       0.7131282
       0.7136021
       0.7139481
       0.7141311
       0.7141166
       0.7105503
       0.7107095
       0.7110061
       0.7114454
       0.7119879
       0.7125708
       0.7131280
       0.7136017
       0.7139476
       0.7141305
       0.7141164
       0.7105514
       0.7107100
       0.7110066
       0.7114457
       0.7119881
       0.7125707
       0.7131277
       0.7136012
       0.7139471
       0.7141299
       0.7141161
       0.7105524
       0.7107105
       0.7110070
       0.7114460
       0.7119882
       0.7125707
       0.7131275
       0.7136008
       0.7139465
       0.7141293
       0.7141159
       0.7105534
       0.7107110
       0.7110074
       0.7114463
       0.7119883
       0.7125706
       0.7131272
       0.7136004
       0.7139460
       0.7141288
       0.7141157
       0.7105544
       0.7107115
       0.7110078
       0.7114466
       0.7119884
       0.7125706
       0.7131270
       0.7136000
       0.7139455
       0.7141282
       0.7141154
       0.7105554
       0.7107120
       0.7110082
       0.7114469
       0.7119886
       0.7125705
       0.7131267
       0.7135996
       0.7139449
       0.7141276
       0.7141152
       0.7105564
       0.7107125
       0.7110086
       0.7114471
       0.7119887
       0.7125704
       0.7131265
       0.7135992
       0.7139444
       0.7141270
       0.7141150
       0.7105574
       0.7107130
       0.7110091
       0.7114474
       0.7119888
       0.7125703
       0.7131262
       0.7135988
       0.7139439
       0.7141329
       0.7141213
       0.7105585
       0.7107135
       0.7110095
       0.7114477
       0.7119889
       0.7125703
       0.7131259
       0.7135983
       0.7139433
       0.7141323
       0.7141342
       0.8604164
       0.8604785
       0.8606484
       0.8609091
       0.8612376
       0.8615977
       0.8619549
       0.8622734
       0.8625248
       0.8626884
       0.8627561
       0.8604167
       0.8604786
       0.8606486
       0.8609092
       0.8612377
       0.8615978
       0.8619550
       0.8622735
       0.8625249
       0.8626884
       0.8627562
       0.8604171
       0.8604787
       0.8606487
       0.8609093
       0.8612378
       0.8615979
       0.8619551
       0.8622736
       0.8625249
       0.8626885
       0.8627562
       0.8604175
       0.8604788
       0.8606488
       0.8609094
       0.8612379
       0.8615980
       0.8619552
       0.8622736
       0.8625250
       0.8626886
       0.8627563
       0.8604178
       0.8604789
       0.8606489
       0.8609095
       0.8612380
       0.8615981
       0.8619553
       0.8622737
       0.8625251
       0.8626886
       0.8627564
       0.8604182
       0.8604790
       0.8606490
       0.8609096
       0.8612381
       0.8615982
       0.8619554
       0.8622738
       0.8625251
       0.8626887
       0.8627564
       0.8604185
       0.8604791
       0.8606492
       0.8609096
       0.8612382
       0.8615982