# vtk DataFile Version 2.0
3D Unstructured Grid of Linear Triangles
ASCII
DATASET UNSTRUCTURED_GRID
FIELD FieldData  1
TIME 1 1 double
      176405.71896
POINTS     1320 float
          0.0000E+00      2.7000E-02      1.0001E-03
          5.0000E-02      2.7000E-02      1.0000E-03
          1.0000E-01      2.7000E-02      1.0000E-03
          1.5000E-01      2.7000E-02      1.0000E-03
          2.0000E-01      2.7000E-02      1.0000E-03
          2.5000E-01      2.7000E-02      1.0000E-03
          3.0000E-01      2.7000E-02      1.0000E-03
          3.5000E-01      2.7000E-02      1.0000E-03
          4.0000E-01      2.7000E-02      1.0000E-03
          4.5000E-01      2.7000E-02      1.0000E-03
          5.0000E-01      2.7000E-02      1.0000E-03
          0.0000E+00      2.4000E-02      1.0001E-03
          5.0000E-02      2.4000E-02      1.0000E-03
          1.0000E-01      2.4000E-02      1.0000E-03
          1.5000E-01      2.4000E-02      1.0000E-03
          2.0000E-01      2.4000E-02      1.0000E-03
          2.5000E-01      2.4000E-02      1.0000E-03
          3.0000E-01      2.4000E-02      1.0000E-03
          3.5000E-01      2.4000E-02      1.0000E-03
          4.0000E-01      2.4000E-02      1.0000E-03
          4.5000E-01      2.4000E-02      1.0000E-03
          5.0000E-01      2.4000E-02      1.0000E-03
          0.0000E+00      2.1000E-02      1.0001E-03
          5.0000E-02      2.1000E-02      1.0000E-03
          1.0000E-01      2.1000E-02      1.0000E-03
          1.5000E-01      2.1000E-02      1.0000E-03
          2.0000E-01      2.1000E-02      1.0000E-03
          2.5000E-01      2.1000E-02      1.0000E-03
          3.0000E-01      2.1000E-02      1.0000E-03
          3.5000E-01      2.1000E-02      1.0000E-03
          4.0000E-01      2.1000E-02      1.0000E-03
          4.5000E-01      2.1000E-02      1.0000E-03
          5.0000E-01      2.1000E-02      1.0000E-03
          0.0000E+00      1.8000E-02      1.0001E-03
          5.0000E-02      1.8000E-02      1.0000E-03
          1.0000E-01      1.8000E-02      1.0000E-03
          1.5000E-01      1.8000E-02      1.0000E-03
          2.0000E-01      1.8000E-02      1.0000E-03
          2.5000E-01      1.8000E-02      1.0000E-03
          3.0000E-01      1.8000E-02      1.0000E-03
          3.5000E-01      1.8000E-02      1.0000E-03
          4.0000E-01      1.8000E-02      1.0000E-03
          4.5000E-01      1.8000E-02      1.0000E-03
          5.0000E-01      1.8000E-02      1.0000E-03
          0.0000E+00      1.5000E-02      1.0001E-03
          5.0000E-02      1.5000E-02      1.0000E-03
          1.0000E-01      1.5000E-02      1.0000E-03
          1.5000E-01      1.5000E-02      1.0000E-03
          2.0000E-01      1.5000E-02      1.0000E-03
          2.5000E-01      1.5000E-02      1.0000E-03
          3.0000E-01      1.5000E-02      1.0000E-03
          3.5000E-01      1.5000E-02      1.0000E-03
          4.0000E-01      1.5000E-02      1.0000E-03
          4.5000E-01      1.5000E-02      1.0000E-03
          5.0000E-01      1.5000E-02      1.0000E-03
          0.0000E+00      1.2000E-02      1.0001E-03
          5.0000E-02      1.2000E-02      1.0000E-03
          1.0000E-01      1.2000E-02      1.0000E-03
          1.5000E-01      1.2000E-02      1.0000E-03
          2.0000E-01      1.2000E-02      1.0000E-03
          2.5000E-01      1.2000E-02      1.0000E-03
          3.0000E-01      1.2000E-02      1.0000E-03
          3.5000E-01      1.2000E-02      1.0000E-03
          4.0000E-01      1.2000E-02      1.0000E-03
          4.5000E-01      1.2000E-02      1.0000E-03
          5.0000E-01      1.2000E-02      1.0000E-03
          0.0000E+00      9.0000E-03      1.0001E-03
          5.0000E-02      9.0000E-03      1.0000E-03
          1.0000E-01      9.0000E-03      1.0000E-03
          1.5000E-01      9.0000E-03      1.0000E-03
          2.0000E-01      9.0000E-03      1.0000E-03
          2.5000E-01      9.0000E-03      1.0000E-03
          3.0000E-01      9.0000E-03      1.0000E-03
          3.5000E-01      9.0000E-03      1.0000E-03
          4.0000E-01      9.0000E-03      1.0000E-03
          4.5000E-01      9.0000E-03      1.0000E-03
          5.0000E-01      9.0000E-03      1.0000E-03
          0.0000E+00      6.0000E-03      1.0001E-03
          5.0000E-02      6.0000E-03      1.0000E-03
          1.0000E-01      6.0000E-03      1.0000E-03
          1.5000E-01      6.0000E-03      1.0000E-03
          2.0000E-01      6.0000E-03      1.0000E-03
          2.5000E-01      6.0000E-03      1.0000E-03
          3.0000E-01      6.0000E-03      1.0000E-03
          3.5000E-01      6.0000E-03      1.0000E-03
          4.0000E-01      6.0000E-03      1.0000E-03
          4.5000E-01      6.0000E-03      1.0000E-03
          5.0000E-01      6.0000E-03      1.0000E-03
          0.0000E+00      3.0000E-03      1.0001E-03
          5.0000E-02      3.0000E-03      1.0000E-03
          1.0000E-01      3.0000E-03      1.0000E-03
          1.5000E-01      3.0000E-03      1.0000E-03
          2.0000E-01      3.0000E-03      1.0000E-03
          2.5000E-01      3.0000E-03      1.0000E-03
          3.0000E-01      3.0000E-03      1.0000E-03
          3.5000E-01      3.0000E-03      1.0000E-03
          4.0000E-01      3.0000E-03      1.0000E-03
          4.5000E-01      3.0000E-03      9.9667E-04
          5.0000E-01      3.0000E-03      9.9667E-04
          0.0000E+00      0.0000E+00      1.0001E-03
          5.0000E-02      0.0000E+00      1.0000E-03
          1.0000E-01      0.0000E+00      1.0000E-03
          1.5000E-01      0.0000E+00      1.0000E-03
          2.0000E-01      0.0000E+00      1.0000E-03
          2.5000E-01      0.0000E+00      1.0000E-03
          3.0000E-01      0.0000E+00      1.0000E-03
          3.5000E-01      0.0000E+00      1.0000E-03
          4.0000E-01      0.0000E+00      1.0000E-03
          4.5000E-01      0.0000E+00      9.9667E-04
          5.0000E-01      0.0000E+00      9.9000E-04
          0.0000E+00      2.7000E-02     -4.9000E-02
          5.0000E-02      2.7000E-02     -4.9000E-02
          1.0000E-01      2.7000E-02     -4.9000E-02
          1.5000E-01      2.7000E-02     -4.9000E-02
          2.0000E-01      2.7000E-02     -4.9000E-02
          2.5000E-01      2.7000E-02     -4.9000E-02
          3.0000E-01      2.7000E-02     -4.9000E-02
          3.5000E-01      2.7000E-02     -4.9000E-02
          4.0000E-01      2.7000E-02     -4.9000E-02
          4.5000E-01      2.7000E-02     -4.9000E-02
          5.0000E-01      2.7000E-02     -4.9000E-02
          0.0000E+00      2.4000E-02     -4.9000E-02
          5.0000E-02      2.4000E-02     -4.9000E-02
          1.0000E-01      2.4000E-02     -4.9000E-02
          1.5000E-01      2.4000E-02     -4.9000E-02
          2.0000E-01      2.4000E-02     -4.9000E-02
          2.5000E-01      2.4000E-02     -4.9000E-02
          3.0000E-01      2.4000E-02     -4.9000E-02
          3.5000E-01      2.4000E-02     -4.9000E-02
          4.0000E-01      2.4000E-02     -4.9000E-02
          4.5000E-01      2.4000E-02     -4.9000E-02
          5.0000E-01      2.4000E-02     -4.9000E-02
          0.0000E+00      2.1000E-02     -4.9000E-02
          5.0000E-02      2.1000E-02     -4.9000E-02
          1.0000E-01      2.1000E-02     -4.9000E-02
          1.5000E-01      2.1000E-02     -4.9000E-02
          2.0000E-01      2.1000E-02     -4.9000E-02
          2.5000E-01      2.1000E-02     -4.9000E-02
          3.0000E-01      2.1000E-02     -4.9000E-02
          3.5000E-01      2.1000E-02     -4.9000E-02
          4.0000E-01      2.1000E-02     -4.9000E-02
          4.5000E-01      2.1000E-02     -4.9000E-02
          5.0000E-01      2.1000E-02     -4.9000E-02
          0.0000E+00      1.8000E-02     -4.9000E-02
          5.0000E-02      1.8000E-02     -4.9000E-02
          1.0000E-01      1.8000E-02     -4.9000E-02
          1.5000E-01      1.8000E-02     -4.9000E-02
          2.0000E-01      1.8000E-02     -4.9000E-02
          2.5000E-01      1.8000E-02     -4.9000E-02
          3.0000E-01      1.8000E-02     -4.9000E-02
          3.5000E-01      1.8000E-02     -4.9000E-02
          4.0000E-01      1.8000E-02     -4.9000E-02
          4.5000E-01      1.8000E-02     -4.9000E-02
          5.0000E-01      1.8000E-02     -4.9000E-02
          0.0000E+00      1.5000E-02     -4.9000E-02
          5.0000E-02      1.5000E-02     -4.9000E-02
          1.0000E-01      1.5000E-02     -4.9000E-02
          1.5000E-01      1.5000E-02     -4.9000E-02
          2.0000E-01      1.5000E-02     -4.9000E-02
          2.5000E-01      1.5000E-02     -4.9000E-02
          3.0000E-01      1.5000E-02     -4.9000E-02
          3.5000E-01      1.5000E-02     -4.9000E-02
          4.0000E-01      1.5000E-02     -4.9000E-02
          4.5000E-01      1.5000E-02     -4.9000E-02
          5.0000E-01      1.5000E-02     -4.9000E-02
          0.0000E+00      1.2000E-02     -4.9000E-02
          5.0000E-02      1.2000E-02     -4.9000E-02
          1.0000E-01      1.2000E-02     -4.9000E-02
          1.5000E-01      1.2000E-02     -4.9000E-02
          2.0000E-01      1.2000E-02     -4.9000E-02
          2.5000E-01      1.2000E-02     -4.9000E-02
          3.0000E-01      1.2000E-02     -4.9000E-02
          3.5000E-01      1.2000E-02     -4.9000E-02
          4.0000E-01      1.2000E-02     -4.9000E-02
          4.5000E-01      1.2000E-02     -4.9000E-02
          5.0000E-01      1.2000E-02     -4.9000E-02
          0.0000E+00      9.0000E-03     -4.9000E-02
          5.0000E-02      9.0000E-03     -4.9000E-02
          1.0000E-01      9.0000E-03     -4.9000E-02
          1.5000E-01      9.0000E-03     -4.9000E-02
          2.0000E-01      9.0000E-03     -4.9000E-02
          2.5000E-01      9.0000E-03     -4.9000E-02
          3.0000E-01      9.0000E-03     -4.9000E-02
          3.5000E-01      9.0000E-03     -4.9000E-02
          4.0000E-01      9.0000E-03     -4.9000E-02
[...]
POINT_DATA     1320
SCALARS conc_node float
LOOKUP_TABLE default
       0.0042653
       0.0050584
       0.0043049
       0.0041640
       0.0039213
       0.0106894
       0.0056647
       0.0012938
       0.0006093
       0.0010110
       0.0004561
       0.0048355
       0.0055028
       0.0046444
       0.0045042
       0.0046728
       0.0115927
       0.0373713
       0.0369419
       0.0268380
       0.0059764
       0.0035025
       0.0049295
       0.0055521
       0.0047863
       0.0046150
       0.0048082
       0.0094546
       0.0520767
       0.0244789
       0.0052534
       0.0019542
       0.0022491
       0.0049513
       0.0055531
       0.0048115
       0.0046280
       0.0049186
       0.0070980
       0.0249275
       0.0069557
       0.0015074
       0.0016977
       0.0020502
       0.0049568
       0.0055447
       0.0048243
       0.0046361
       0.0049994
       0.0056899
       0.0181357
       0.0071853
       0.0026592
       0.0030093
       0.0021058
       0.0049490
       0.0055319
       0.0048121
       0.0046229
       0.0050480
       0.0048987
       0.0112570
       0.0068063
       0.0039455
       0.0041801
       0.0024254
       0.0049267
       0.0055136
       0.0047744
       0.0045879
       0.0050776
       0.0044949
       0.0067729
       0.0047936
       0.0040955
       0.0042618
       0.0027323
       0.0048848
       0.0054837
       0.0047080
       0.0045281
       0.0050873
       0.0043056
       0.0044020
       0.0031192
       0.0035847
       0.0039821
       0.0023699
       0.0048130
       0.0054194
       0.0045662
       0.0044196
       0.0051727
       0.0042522
       0.0024866
       0.0018366
       0.0022550
       0.0031210
       0.0020723
       0.0053098
       0.0057729
       0.0046618
       0.0045962
       0.0053260
       0.0048626
       0.0023875
       0.0018410
       0.0012088
       0.0021149
       0.0027921
       0.0074022
       0.0103980
       0.0108315
       0.0108670
       0.0117616
       0.0348768
       0.0799495
       0.1270545
       0.0844713
       0.0427908
       0.1230480
       0.0126997
       0.0258723
       0.0259741
       0.0268446
       0.0274405
       0.0553676
       0.0814143
       0.0971172
       0.0748827
       0.0532387
       0.1630387
       0.0135098
       0.0292792
       0.0258434
       0.0261787
       0.0278484
       0.0465837
       0.0611656
       0.0265575
       0.0149748
       0.0280705
       0.1096865
       0.0132337
       0.0290355
       0.0257267
       0.0261461
       0.0280035
       0.0446597
       0.0451147
       0.0216177
       0.0148337
       0.0264267
       0.1028460
       0.0130441
       0.0288539
       0.0257209
       0.0260719
       0.0279400
       0.0439253
       0.0449765
       0.0233595
       0.0158661
       0.0255011
       0.0979969
       0.0129970
       0.0287753
       0.0256977
       0.0259971
       0.0279834
       0.0436651
       0.0446410
       0.0251175
       0.0162771
       0.0240770
       0.0944235
       0.0131125
       0.0288009
       0.0256478
       0.0259120
       0.0280288
       0.0432705
       0.0439842
       0.0260468
       0.0160845
       0.0224683
       0.0907879
       0.0133932
       0.0288681
       0.0254868
       0.0258604
       0.0281534
       0.0418094
       0.0417719
       0.0262687
       0.0161126
       0.0203769
       0.0861127
       0.0149756
       0.0279638
       0.0247462
       0.0258012
       0.0269654
       0.0373666
       0.0398750
       0.0264474
       0.0171805
       0.0162533
       0.0774876
       0.0507994
       0.0580887
       0.0421038
       0.0408035
       0.0453903
       0.0633212
       0.0658364
       0.0604995
       0.0410783
       0.0382657
       0.1150656
       0.1057465
       0.1597880
       0.1615350
       0.1619005
       0.1703882
       0.1716394
       0.2706105
       0.3038371
       0.1821670
       0.2937226
       0.5861972
       0.1777119
       0.2640387
       0.2420932
       0.2396910
       0.2557194
       0.2562985
       0.2328649
       0.2612436
       0.1864310
       0.2544089
       0.5838576
       0.1760859
       0.2537787
       0.2339654
       0.2330383
       0.2487869
       0.2623650
       0.2085975
       0.2005546
       0.1319412
       0.2186956
       0.5472982
       0.1744238
       0.2531313
       0.2332326
       0.2330254
       0.2490166
       0.2698134
       0.2066052
       0.1927862
       0.1290947
       0.2119838
       0.5418304
       0.1735078
       0.2527330
       0.2327719
       0.2327137
       0.2494779
       0.2744558
       0.2085211
       0.1889114
       0.1316079
       0.2093522
       0.5389485
       0.1733106
       0.2524030
       0.2322893
       0.2323123
       0.2498471
       0.2767546
       0.2110099
       0.1868968
       0.1332484
       0.2072896
       0.5366461
       0.1738659
       0.2520965
       0.2317764
       0.2317838
       0.2500617
       0.2777605
       0.2147328
       0.1901375
       0.1392903
       0.2067453
       0.5344796
       0.1753100
       0.2518826
       0.2312593
       0.2308234
       0.2489544
       0.2760044
       0.2168884
       0.1961605
       0.1476147
       0.2070137
       0.5323538
       0.1948397
       0.2570699
       0.2359009
       0.2342949
       0.2601467
       0.2840417
       0.2484253
       0.2358401
       0.1810225
       0.2286451
       0.5323301
       0.3314345
       0.3855982
       0.3771123
       0.3658201
       0.4050241
       0.4736551
       0.4521655
       0.4727386
       0.3819339
       0.3987566
       0.6310048
       0.6198936
       0.6423579
       0.6309878
       0.6359745
       0.6191982
       0.5261138
       0.6286825
       0.5904373
       0.4819505
       0.6714658
       0.9212018
       0.6691983
       0.7147685
       0.7107962
       0.7066282
       0.7335625
       0.6550275
       0.6676328
       0.6402209
       0.5621524
       0.6805664
       0.9052347
       0.6680366
       0.7140167
       0.7305007
       0.7265498
       0.7497869
       0.6735354
       0.6691556
       0.6240441
       0.5365879
       0.6670453
       0.9228575
       0.6667659
       0.7144991
       0.7293178
       0.7249595
       0.7457673
       0.6743049
       0.6639470
       0.6306762
       0.5442199
       0.6731765
       0.9290311
       0.6659541
       0.7145212
       0.7286605
       0.7243058
       0.7424379
       0.6728535
       0.6595437
       0.6345794
       0.5522678
       0.6784229
       0.9318608
       0.6655107
       0.7140308
       0.7278989
       0.7236474
       0.7395862
       0.6705462
       0.6571783
       0.6396987
       0.5577754
       0.6834797
       0.9341164
       0.6654272
       0.7130045
       0.7270108
       0.7228387
       0.7371856
       0.6693970
       0.6581190
       0.6473025
       0.5644908
       0.6901468
       0.9373985
       0.6657478
       0.7114160
       0.7259989
       0.7223745
       0.7374314
       0.6687559
       0.6597308
       0.6564450
       0.5748870
       0.6989982
       0.9413036
       0.6561649
       0.7214516
       0.7312736
       0.7289897
       0.7789553
       0.7384737
       0.7458160
       0.7239770
       0.6463809
       0.7293888
       0.9444694
       0.7645989
       0.8166683
       0.8409772
       0.8366626
       0.8840901
       0.9168625
       0.9308410
       0.9262001
       0.8692884
       0.8678743
       0.9644744
       0.9108160
       0.9236574
       0.9107543
       0.9038889
       0.9011076
       0.8631784
       0.9373760
       0.9068749
       0.8757403
       0.8994400
       0.9861631
       0.9268855
       0.9585145
       0.9638307
       0.9619527
       0.9680395
       0.9247280
       0.9655282
       0.9480683
       0.9242426
       0.9333851
       0.9867345
       0.9277493
       0.9616051
       0.9738068
       0.9701325
       0.9750982
       0.9362102
       0.9792307
       0.9616599
       0.9341271
       0.9442348
       1.0087757
       0.9282856
       0.9619548
       0.9734831
       0.9699401
       0.9717234
       0.9330923
       0.9771639
       0.9640305
       0.9366148
       0.9534385
       1.0101723
       0.9284454
       0.9621372
       0.9733217
       0.9697316
       0.9679625
       0.9299085
       0.9755165
       0.9636655
       0.9347488
       0.9568496
       1.0110121
       0.9283199
       0.9622578
       0.9732492
       0.9696609
       0.9647051
       0.9265824
       0.9722016
       0.9609422
       0.9337679
       0.9604028
       1.0116130
       0.9278309
       0.9623360
       0.9732600
       0.9697668
       0.9617722
       0.9236624
       0.9678962
       0.9552864
       0.9301383
       0.9655240
       1.0120593
       0.9267520
       0.9620691
       0.9731001
       0.9692729
       0.9596564
       0.9206501
       0.9605254
       0.9446420
       0.9206277
       0.9702141
       1.0124369
       0.9100931
       0.9552870
       0.9696558
       0.9663886
       0.9831507
       0.9639472
       0.9976471
       0.9790078
       0.9523067
       0.9698927
       1.0119495
       0.9295311
       0.9636127
       0.9911893
       0.9915928
       1.0162158
       1.0230293
       1.0384278
       1.0392352
       1.0439219
       1.0230522
       1.0224190
       0.9587113
       0.9689645
       0.9638467
       0.9566573
       0.9449386
       0.9459917
       0.9889096
       0.9987759
       0.9962781
       0.9686681
       0.9930141
       0.9640502
       0.9904930
       1.0003391
       0.9986428
       0.9911895
       0.9816746
       1.0080514
       1.0217106
       1.0217525
       0.9993032
       1.0153767
       0.9642830
       0.9920972
       1.0088916
       1.0071047
       0.9995350
       0.9900240
       1.0172225
       1.0285747
       1.0298023
       1.0098802
       1.0332542
       0.9643336
       0.9923867
       1.0088322
       1.0072198
       0.9991084
       0.9890799
       1.0166100
       1.0255450
       1.0263801
       1.0108948
       1.0335169
       0.9643921
       0.9925887
       1.0088540
       1.0073298
       0.9984118
       0.9882251
       1.0160481
       1.0238880
       1.0221498
       1.0118520
       1.0336645
       0.9644403
       0.9927335
       1.0089455
       1.0074781
       0.9977948
       0.9873864
       1.0149301
       1.0211623
       1.0190867
       1.0131764
       1.0335673
       0.9644831
       0.9928052
       1.0091112
       1.0077416
       0.9972072
       0.9866805
       1.0135237
       1.0179392
       1.0169547
       1.0154338
       1.0329906
       0.9644685
       0.9930582
       1.0096968
       1.0081353
       0.9952636
       0.9850205
       1.0116443
       1.0138689
       1.0109900
       1.0174953
       1.0317419
       0.9586609
       0.9936252
       1.0144336
       1.0128894
       1.0109112
       1.0026702
       1.0274180
       1.0321766
       1.0256376
       1.0189016
       1.0306824
       0.9603026
       0.9963070
       1.0358757
       1.0388915
       1.0462747
       1.0366536
       1.0440424
       1.0529574
       1.0566744
       1.0462424
       1.0499374
       0.9558687
       0.9622013
       0.9622237
       0.9620943
       0.9520568
       0.9529739
       0.9754489
       0.9897092
       0.9892191
       0.9831412
       0.9936419
       0.9609825
       0.9914173
       1.0081998
       1.0096376
       1.0032973
       0.9965495
       1.0070178
       1.0169484
       1.0199251
       1.0134455
       1.0401938
       0.9613078
       0.9957654
       1.0186715
       1.0195849
       1.0124790
       1.0063044
       1.0152797
       1.0251624
       1.0282279
       1.0230583
       1.0618705
       0.9611759
       0.9959636
       1.0186214
       1.0196657
       1.0126599
       1.0063932
       1.0152295
       1.0241627
       1.0274620
       1.0233586
       1.0620699
       0.9611746
       0.9961540
       1.0185907
       1.0197339
       1.0127380
       1.0064243
       1.0151973
       1.0238070
       1.0265945
       1.0236738
       1.0621240
       0.9612940
       0.9963486
       1.0186663
       1.0198653
       1.0127628
       1.0064457
       1.0151627
       1.0234857
       1.0261104
       1.0240020
       1.0621384
       0.9615165
       0.9965339
       1.0188515
       1.0201006
       1.0127501
       1.0065045
       1.0151186
       1.0230742
       1.0264535
       1.0247972
       1.0620400
       0.9617965
       0.9964926
       1.0190894
       1.0205027
       1.0121188
       1.0058608
       1.0146589
       1.0225131
       1.0251042
       1.0257618
       1.0625602
       0.9623919
       1.0026168
       1.0260979
       1.0265982
       1.0236780
       1.0169604
       1.0237533
       1.0329888
       1.0338526
       1.0307557
       1.0617937
       0.9671630
       1.0225533
       1.0669063
       1.0704698
       1.0732421
       1.0620192
       1.0558817
       1.0610737
       1.0676571
       1.0652146
       1.0949618
       0.9515693
       0.9597504
       0.9641536
       0.9677805
       0.9619181
       0.9594381
       0.9623060
       0.9668989
       0.9666018
       0.9800400
       0.9819654
       0.9558303
       0.9935692
       1.0116606
       1.0141098
       1.0099759
       1.0042995
       1.0045908
       1.0070960
       1.0054523
       1.0110267
       1.0475260
       0.9556005
       1.0025290
       1.0225063
       1.0256910
       1.0219714
       1.0163215
       1.0158451
       1.0178453
       1.0162261
       1.0217146
       1.0689636
       0.9554862
       1.0025713
       1.0225370
       1.0257538
       1.0219908
       1.0162636
       1.0158379
       1.0176523
       1.0161366
       1.0217640
       1.0690094
       0.9554816
       1.0026931
       1.0225409
       1.0257212
       1.0220212
       1.0162639
       1.0158813
       1.0175679
       1.0160304
       1.0217946
       1.0690028
       0.9555785
       1.0028402
       1.0226034
       1.0257683
       1.0220616
       1.0162977
       1.0159341
       1.0175540
       1.0159661
       1.0218615
       1.0689952
       0.9557795
       1.0029893
       1.0227283
       1.0258621
       1.0221153
       1.0163423
       1.0160014
       1.0175694
       1.0161067
       1.0220462
       1.0689581
       0.9560479
       1.0030471
       1.0229066
       1.0260604
       1.0220304
       1.0162673
       1.0158421
       1.0175200
       1.0159366
       1.0232424
       1.0703506
       0.9653329
       1.0137242
       1.0331618
       1.0366805
       1.0328607
       1.0262468
       1.0254360
       1.0286327
       1.0280339
       1.0325184
       1.0725905
       0.9702959
       1.0516718
       1.0903097
       1.0932229
       1.0913557
       1.0833573
       1.0787260
       1.0777526
       1.0768344
       1.0731346
       1.1165107
       0.9437494
       0.9554701
       0.9602444
       0.9593719
       0.9541691
       0.9498746
       0.9480783
       0.9476408
       0.9482934
       0.9732471
       0.9627839
       0.9519623
       0.9875325
       1.0007089
       1.0028207
       0.9971657
       0.9937789
       0.9884713
       0.9883552
       0.9860326
       0.9987667
       1.0281228
       0.9522116
       1.0006006
       1.0130337
       1.0163834
       1.0092289
       1.0056667
       0.9984318
       0.9980168
       0.9945110
       1.0067580
       1.0379992
       0.9523516
       1.0014072
       1.0125867
       1.0170464
       1.0088176
       1.0061675
       0.9981049
       0.9985180
       0.9942530
       1.0072169
       1.0375612
       0.9525259
       1.0015855
       1.0125577
       1.0172959
       1.0088073
       1.0063785
       0.9980918
       0.9987192
       0.9943075
       1.0074138
       1.0375847
       0.9526516
       1.0014086
       1.0127391
       1.0170960
       1.0089544
       1.0061952
       0.9981761
       0.9985207
       0.9943931
       1.0072225
       1.0375915
       0.9527684
       1.0013006
       1.0128840
       1.0169795
       1.0090538
       1.0060619
       0.9982187
       0.9983477
       0.9938476
       1.0067446
       1.0375250
       0.9528625
       1.0012336
       1.0129540
       1.0169003
       1.0090703
       1.0059420
       0.9981865
       0.9982125
       0.9945841
       1.0076310
       1.0386214
       0.9715833
       1.0136365
       1.0255735
       1.0294193
       1.0211140
       1.0175357
       1.0091233
       1.0082998
       1.0045726
       1.0160608
       1.0406771
       0.9732693
       1.0547875
       1.0762722
       1.0832785
       1.0724235
       1.0683762
       1.0537701
       1.0518339
       1.0423240
       1.0405665
       1.0780056
       0.9656478
       0.9451273
       0.9535786
       0.9420870
       0.9513604
       0.9436329
       0.9575458
       0.9540918
       0.9684206
       0.9688376
       0.9254227
       0.9509285
       0.9343939
       0.9530041
       0.9310292
       0.9524821
       0.9326812
       0.9567569
       0.9415383
       0.9665763
       0.9557502
       0.9768882
       0.9530201
       0.9312512
       0.9637809
       0.9265934
       0.9591386
       0.9252286
       0.9589200
       0.9321531
       0.9684465
       0.9483388
       0.9847853
       0.9548231
       0.9298555
       0.9746332
       0.9271849
       0.9693128
       0.9266878
       0.9692786
       0.9344084
       0.9791350
       0.9513728
       1.0033729
       0.9540488
       0.9314024
       0.9748203
       0.9284082
       0.9696059
       0.9279107
       0.9697217
       0.9356272
       0.9795797
       0.9524543
       1.0048272
       0.9533950
       0.9335664
       0.9720453
       0.9303735
       0.9671471
       0.9295080
       0.9673580
       0.9370284
       0.9771906
       0.9535950
       1.0008528
       0.9528193
       0.9354991
       0.9697027
       0.9321069
       0.9650870
       0.9309668
       0.9653156
       0.9384032
       0.9738874
       0.9538861
       0.9974532
       0.9523519
       0.9372314
       0.9677440
       0.9335739
       0.9633215
       0.9322188
       0.9635593
       0.9396917
       0.9733988
       0.9544989
       0.9944838
       0.9746421
       0.9486923
       0.9756920
       0.9432658
       0.9692474
       0.9396259
       0.9677737
       0.9453133
       0.9756829
       0.9602303
       0.9953953
       0.9248936
       0.9346968
       0.9756252
       0.9281535
       0.9689415
       0.9260320
       0.9674486
       0.9332117
       0.9775461
       0.9466003
       1.0297140
       1.1495508
       1.1243305
       1.0603636
       1.1258457
       1.0720943
       1.1277631
       1.0775723
       1.1237800
       1.0796041
       1.1013809
       0.9420037
       1.0832192
       1.0664819
       1.0059572
       1.0652619
       1.0176591
       1.0703366
       1.0281091
       1.0714863
       1.0368964
       1.0593239
       0.9821252
       1.1027538
       1.0981761
       0.9980863
       1.0822695
       1.0145195
       1.0908247
       1.0331915
       1.0960079
       1.0453234
       1.0860122
       0.9829214
       1.1089426
       1.1194119
       1.0067484
       1.0982752
       1.0252379
       1.1059745
       1.0456240
       1.1120861
       1.0581759
       1.1028641
       1.0017647
       1.1004439
       1.1171179
       1.0096394
       1.0938934
       1.0269833
       1.1029495
       1.0466178
       1.1089688
       1.0586952
       1.1001384
       1.0086235
       1.0936192
       1.1143974
       1.0121381
       1.0891884
       1.0284558
       1.0995559
       1.0477791
       1.1056841
       1.0594380
       1.0968901
       1.0142451
       1.0880817
       1.1115709
       1.0147126
       1.0837922
       1.0301901
       1.0953397