# vtk DataFile Version 2.0
3D Unstructured Grid of Linear Triangles
ASCII
DATASET UNSTRUCTURED_GRID
FIELD FieldData  1
TIME 1 1 double
        3600.00000
POINTS     7056 float
      0.00000000E+00  1.00000000E+01  1.00000000E+00
      5.00000000E-01  1.00000000E+01  9.93333333E-01
      1.00000000E+00  1.00000000E+01  9.83333333E-01
      1.50000000E+00  1.00000000E+01  9.73333333E-01
      2.00000000E+00  1.00000000E+01  9.63333333E-01
      2.50000000E+00  1.00000000E+01  9.53333333E-01
      3.00000000E+00  1.00000000E+01  9.43333333E-01
      3.50000000E+00  1.00000000E+01  9.33333333E-01
      4.00000000E+00  1.00000000E+01  9.23333333E-01
      4.50000000E+00  1.00000000E+01  9.13333333E-01
      5.00000000E+00  1.00000000E+01  9.03333333E-01
      5.50000000E+00  1.00000000E+01  8.93333333E-01
      6.00000000E+00  1.00000000E+01  8.83333333E-01
      6.50000000E+00  1.00000000E+01  8.73333333E-01
      7.00000000E+00  1.00000000E+01  8.63333333E-01
      7.50000000E+00  1.00000000E+01  8.53333333E-01
      8.00000000E+00  1.00000000E+01  8.43333333E-01
      8.50000000E+00  1.00000000E+01  8.33333333E-01
      9.00000000E+00  1.00000000E+01  8.23333333E-01
      9.50000000E+00  1.00000000E+01  8.13333333E-01
      1.00000000E+01  1.00000000E+01  8.10000000E-01
      0.00000000E+00  9.50000000E+00  9.83333333E-01
      5.00000000E-01  9.50000000E+00  9.82500000E-01
      1.00000000E+00  9.50000000E+00  9.72500000E-01
      1.50000000E+00  9.50000000E+00  9.62500000E-01
      2.00000000E+00  9.50000000E+00  9.52500000E-01
      2.50000000E+00  9.50000000E+00  9.42500000E-01
      3.00000000E+00  9.50000000E+00  9.32500000E-01
      3.50000000E+00  9.50000000E+00  9.22500000E-01
      4.00000000E+00  9.50000000E+00  9.12500000E-01
      4.50000000E+00  9.50000000E+00  9.02500000E-01
      5.00000000E+00  9.50000000E+00  8.92500000E-01
      5.50000000E+00  9.50000000E+00  8.82500000E-01
      6.00000000E+00  9.50000000E+00  8.72500000E-01
      6.50000000E+00  9.50000000E+00  8.62500000E-01
      7.00000000E+00  9.50000000E+00  8.52500000E-01
      7.50000000E+00  9.50000000E+00  8.42500000E-01
      8.00000000E+00  9.50000000E+00  8.32500000E-01
      8.50000000E+00  9.50000000E+00  8.22500000E-01
      9.00000000E+00  9.50000000E+00  8.12500000E-01
      9.50000000E+00  9.50000000E+00  8.02500000E-01
      1.00000000E+01  9.50000000E+00  8.01666667E-01
      0.00000000E+00  9.00000000E+00  9.58333333E-01
      5.00000000E-01  9.00000000E+00  9.57500000E-01
      1.00000000E+00  9.00000000E+00  9.47500000E-01
      1.50000000E+00  9.00000000E+00  9.37500000E-01
      2.00000000E+00  9.00000000E+00  9.27500000E-01
      2.50000000E+00  9.00000000E+00  9.17500000E-01
      3.00000000E+00  9.00000000E+00  9.07500000E-01
      3.50000000E+00  9.00000000E+00  8.97500000E-01
      4.00000000E+00  9.00000000E+00  8.87500000E-01
      4.50000000E+00  9.00000000E+00  8.77500000E-01
      5.00000000E+00  9.00000000E+00  8.67500000E-01
      5.50000000E+00  9.00000000E+00  8.57500000E-01
      6.00000000E+00  9.00000000E+00  8.47500000E-01
      6.50000000E+00  9.00000000E+00  8.37500000E-01
      7.00000000E+00  9.00000000E+00  8.27500000E-01
      7.50000000E+00  9.00000000E+00  8.17500000E-01
      8.00000000E+00  9.00000000E+00  8.07500000E-01
      8.50000000E+00  9.00000000E+00  7.97500000E-01
      9.00000000E+00  9.00000000E+00  7.87500000E-01
      9.50000000E+00  9.00000000E+00  7.77500000E-01
      1.00000000E+01  9.00000000E+00  7.76666667E-01
      0.00000000E+00  8.50000000E+00  9.33333333E-01
      5.00000000E-01  8.50000000E+00  9.32500000E-01
      1.00000000E+00  8.50000000E+00  9.22500000E-01
      1.50000000E+00  8.50000000E+00  9.12500000E-01
      2.00000000E+00  8.50000000E+00  9.02500000E-01
      2.50000000E+00  8.50000000E+00  8.92500000E-01
      3.00000000E+00  8.50000000E+00  8.82500000E-01
      3.50000000E+00  8.50000000E+00  8.72500000E-01
      4.00000000E+00  8.50000000E+00  8.62500000E-01
      4.50000000E+00  8.50000000E+00  8.52500000E-01
      5.00000000E+00  8.50000000E+00  8.42500000E-01
      5.50000000E+00  8.50000000E+00  8.32500000E-01
      6.00000000E+00  8.50000000E+00  8.22500000E-01
      6.50000000E+00  8.50000000E+00  8.12500000E-01
      7.00000000E+00  8.50000000E+00  8.02500000E-01
      7.50000000E+00  8.50000000E+00  7.92500000E-01
      8.00000000E+00  8.50000000E+00  7.82500000E-01
      8.50000000E+00  8.50000000E+00  7.72500000E-01
      9.00000000E+00  8.50000000E+00  7.62500000E-01
      9.50000000E+00  8.50000000E+00  7.52500000E-01
      1.00000000E+01  8.50000000E+00  7.51666667E-01
      0.00000000E+00  8.00000000E+00  9.08333333E-01
      5.00000000E-01  8.00000000E+00  9.07500000E-01
      1.00000000E+00  8.00000000E+00  8.97500000E-01
      1.50000000E+00  8.00000000E+00  8.87500000E-01
      2.00000000E+00  8.00000000E+00  8.77500000E-01
      2.50000000E+00  8.00000000E+00  8.67500000E-01
      3.00000000E+00  8.00000000E+00  8.57500000E-01
      3.50000000E+00  8.00000000E+00  8.47500000E-01
      4.00000000E+00  8.00000000E+00  8.37500000E-01
      4.50000000E+00  8.00000000E+00  8.27500000E-01
      5.00000000E+00  8.00000000E+00  8.17500000E-01
      5.50000000E+00  8.00000000E+00  8.07500000E-01
      6.00000000E+00  8.00000000E+00  7.97500000E-01
      6.50000000E+00  8.00000000E+00  7.87500000E-01
      7.00000000E+00  8.00000000E+00  7.77500000E-01
      7.50000000E+00  8.00000000E+00  7.67500000E-01
      8.00000000E+00  8.00000000E+00  7.57500000E-01
      8.50000000E+00  8.00000000E+00  7.47500000E-01
      9.00000000E+00  8.00000000E+00  7.37500000E-01
      9.50000000E+00  8.00000000E+00  7.27500000E-01
      1.00000000E+01  8.00000000E+00  7.26666667E-01
      0.00000000E+00  7.50000000E+00  8.83333333E-01
      5.00000000E-01  7.50000000E+00  8.82500000E-01
      1.00000000E+00  7.50000000E+00  8.72500000E-01
      1.50000000E+00  7.50000000E+00  8.62500000E-01
      2.00000000E+00  7.50000000E+00  8.52500000E-01
      2.50000000E+00  7.50000000E+00  8.42500000E-01
      3.00000000E+00  7.50000000E+00  8.32500000E-01
      3.50000000E+00  7.50000000E+00  8.22500000E-01
      4.00000000E+00  7.50000000E+00  8.12500000E-01
      4.50000000E+00  7.50000000E+00  8.02500000E-01
      5.00000000E+00  7.50000000E+00  7.92500000E-01
      5.50000000E+00  7.50000000E+00  7.82500000E-01
      6.00000000E+00  7.50000000E+00  7.72500000E-01
      6.50000000E+00  7.50000000E+00  7.62500000E-01
      7.00000000E+00  7.50000000E+00  7.52500000E-01
      7.50000000E+00  7.50000000E+00  7.42500000E-01
      8.00000000E+00  7.50000000E+00  7.32500000E-01
      8.50000000E+00  7.50000000E+00  7.22500000E-01
      9.00000000E+00  7.50000000E+00  7.12500000E-01
      9.50000000E+00  7.50000000E+00  7.02500000E-01
      1.00000000E+01  7.50000000E+00  7.01666667E-01
      0.00000000E+00  7.00000000E+00  8.58333333E-01
      5.00000000E-01  7.00000000E+00  8.57500000E-01
      1.00000000E+00  7.00000000E+00  8.47500000E-01
      1.50000000E+00  7.00000000E+00  8.37500000E-01
      2.00000000E+00  7.00000000E+00  8.27500000E-01
      2.50000000E+00  7.00000000E+00  8.17500000E-01
      3.00000000E+00  7.00000000E+00  8.07500000E-01
      3.50000000E+00  7.00000000E+00  7.97500000E-01
      4.00000000E+00  7.00000000E+00  7.87500000E-01
      4.50000000E+00  7.00000000E+00  7.77500000E-01
      5.00000000E+00  7.00000000E+00  7.67500000E-01
      5.50000000E+00  7.00000000E+00  7.57500000E-01
      6.00000000E+00  7.00000000E+00  7.47500000E-01
      6.50000000E+00  7.00000000E+00  7.37500000E-01
      7.00000000E+00  7.00000000E+00  7.27500000E-01
      7.50000000E+00  7.00000000E+00  7.17500000E-01
      8.00000000E+00  7.00000000E+00  7.07500000E-01
      8.50000000E+00  7.00000000E+00  6.97500000E-01
      9.00000000E+00  7.00000000E+00  6.87500000E-01
      9.50000000E+00  7.00000000E+00  6.77500000E-01
      1.00000000E+01  7.00000000E+00  6.76666667E-01
      0.00000000E+00  6.50000000E+00  8.33333333E-01
      5.00000000E-01  6.50000000E+00  8.32500000E-01
      1.00000000E+00  6.50000000E+00  8.22500000E-01
      1.50000000E+00  6.50000000E+00  8.12500000E-01
      2.00000000E+00  6.50000000E+00  8.02500000E-01
      2.50000000E+00  6.50000000E+00  7.92500000E-01
      3.00000000E+00  6.50000000E+00  7.82500000E-01
      3.50000000E+00  6.50000000E+00  7.72500000E-01
      4.00000000E+00  6.50000000E+00  7.62500000E-01
      4.50000000E+00  6.50000000E+00  7.52500000E-01
      5.00000000E+00  6.50000000E+00  7.42500000E-01
      5.50000000E+00  6.50000000E+00  7.32500000E-01
      6.00000000E+00  6.50000000E+00  7.22500000E-01
      6.50000000E+00  6.50000000E+00  7.12500000E-01
      7.00000000E+00  6.50000000E+00  7.02500000E-01
      7.50000000E+00  6.50000000E+00  6.92500000E-01
      8.00000000E+00  6.50000000E+00  6.82500000E-01
      8.50000000E+00  6.50000000E+00  6.72500000E-01
      9.00000000E+00  6.50000000E+00  6.62500000E-01
      9.50000000E+00  6.50000000E+00  6.52500000E-01
      1.00000000E+01  6.50000000E+00  6.51666667E-01
      0.00000000E+00  6.00000000E+00  8.08333333E-01
      5.00000000E-01  6.00000000E+00  8.07500000E-01
      1.00000000E+00  6.00000000E+00  7.97500000E-01
      1.50000000E+00  6.00000000E+00  7.87500000E-01
      2.00000000E+00  6.00000000E+00  7.77500000E-01
      2.50000000E+00  6.00000000E+00  7.67500000E-01
      3.00000000E+00  6.00000000E+00  7.57500000E-01
      3.50000000E+00  6.00000000E+00  7.47500000E-01
      4.00000000E+00  6.00000000E+00  7.37500000E-01
      4.50000000E+00  6.00000000E+00  7.27500000E-01
      5.00000000E+00  6.00000000E+00  7.17500000E-01
      5.50000000E+00  6.00000000E+00  7.07500000E-01
      6.00000000E+00  6.00000000E+00  6.97500000E-01
      6.50000000E+00  6.00000000E+00  6.87500000E-01
      7.00000000E+00  6.00000000E+00  6.77500000E-01
      7.50000000E+00  6.00000000E+00  6.67500000E-01
      8.00000000E+00  6.00000000E+00  6.57500000E-01
[...]
POINT_DATA     7056
SCALARS pressure float
LOOKUP_TABLE default
 -0.14474677692589261     
 -0.14393435506734878     
 -0.14368888198872948     
 -0.14354607888588161     
 -0.14340462034631954     
 -0.14327333547194618     
 -0.14312640419685957     
 -0.14298311849722492     
 -0.14282495839119397     
 -0.14265400085201077     
 -0.14246528709238929     
 -0.14223717959916538     
 -0.14196045938865340     
 -0.14161305670500970     
 -0.14116296417848354     
 -0.14057066179234973     
 -0.13978138938033560     
 -0.13868519760603285     
 -0.13749073715946153     
 -0.13405024802727522     
 -0.13332106580243608     
 -0.14329592819472720     
 -0.14280926006958580     
 -0.14169740435525657     
 -0.14177037018440181     
 -0.14163894519091069     
 -0.14150105061214702     
 -0.14136271285078716     
 -0.14120558564983518     
 -0.14102993276895548     
 -0.14082730335650631     
 -0.14058785093535586     
 -0.14029631844155352     
 -0.13993551435926957     
 -0.13948222044692879     
 -0.13889674202540367     
 -0.13813366821508408     
 -0.13712279099717625     
 -0.13576770993875334     
 -0.13412235048578752     
 -0.13057339311064534     
 -0.13063349051321185     
 -0.14231425529061112     
 -0.14144559203982202     
 -0.13991340708290109     
 -0.13988807358459121     
 -0.13949987457365595     
 -0.13914015825904841     
 -0.13877086561375920     
 -0.13838036578900936     
 -0.13796264233996652     
 -0.13750168439029761     
 -0.13698041820412674     
 -0.13637762752809615     
 -0.13566499956729708     
 -0.13480293872141738     
 -0.13374321513359508     
 -0.13242597134796924     
 -0.13078121033678408     
 -0.12873439604036169     
 -0.12632725067834016     
 -0.12215803928189992     
 -0.12165084895101436     
 -0.14137540977596552     
 -0.14088916786026370     
 -0.13909684692644272     
 -0.13883435714184317     
 -0.13820841496938996     
 -0.13760508416939687     
 -0.13697430525762047     
 -0.13630718928204613     
 -0.13558829961305505     
 -0.13480316404169698     
 -0.13392524793892760     
 -0.13292574591595469     
 -0.13176749716459046     
 -0.13040756619136884     
 -0.12880128446148165     
 -0.12689859632041672     
 -0.12463114649804760     
 -0.12191796642973002     
 -0.11874913730726602     
 -0.11393617107354961     
 -0.11354546791652594     
 -0.14017276976850657     
 -0.13983468479858857     
 -0.13766916589856054     
 -0.13708825529960186     
 -0.13617024258029567     
 -0.13525771802445688     
 -0.13430571714037723     
 -0.13330218632046387     
 -0.13222866944784706     
 -0.13106062412666875     
 -0.12977420691426070     
 -0.12834033238019410     
 -0.12672896260348260     
 -0.12489280143347588     
 -0.12277195454859283     
 -0.12030101299169262     
 -0.11740503174281690     
 -0.11399351488083026     
 -0.10999148747615323     
 -0.10428337177648798     
 -0.10385580277312810     
 -0.13862526209784579     
 -0.13839405657913345     
 -0.13585193729838510     
 -0.13488211086977056     
 -0.13360838518652515     
 -0.13232222515315764     
 -0.13098463049722148     
 -0.12958196450362655     
 -0.12809994233069599     
 -0.12652278106687537     
 -0.12482105706173952     
 -0.12295298180493186     
 -0.12087035113385595     
 -0.11851830341025522     
 -0.11582999226148503     
 -0.11272321176441930     
 -0.10907975799994461     
 -0.10471580593330421     
  -9.9658037614570427E-002
  -9.3248198844093216E-002
  -9.2781227564353586E-002
 -0.13661299944475200     
 -0.13647283657782974     
 -0.13351657318540763     
 -0.13208383349012345     
 -0.13039019916917149     
 -0.12867540632316535     
 -0.12691809767673382     
 -0.12510749893997802     
 -0.12321652584074652     
 -0.12121199680998807     
 -0.11905523046468973     
 -0.11669957046261874     
 -0.11408657551998921     
 -0.11113910420702250     
 -0.10774057342580463     
 -0.10375269961642014     
  -9.9225876296318377E-002
  -9.4141220899821312E-002
  -8.8443268795442800E-002
  -8.1106743763408165E-002
  -8.0568211488372551E-002
 -0.13400032331794196     
 -0.13395981326265283     
 -0.13053406056186354     
 -0.12858297598131993     
 -0.12644263630427088     
 -0.12429505370389855     
 -0.12210583966532536     
 -0.11984944320986274     
 -0.11749508664805097     
 -0.11500321782673430     
 -0.11232146867240470     
 -0.10937472501197518     
 -0.10605082132279808     
 -0.10229819964843447     
  -9.8169719418526591E-002
  -9.3611220603806236E-002
  -8.8563170043713585E-002
  -8.2626171560982994E-002
  -7.5812283257831792E-002
  -6.7944668808038747E-002
  -6.7415440890539954E-002
 -0.13064362950639602     
 -0.13070376300060668     
 -0.12680881836153482     
 -0.12433646030664845     
 -0.12172133354888996     
 -0.11908700517303876     
 -0.11640095634068548     
 -0.11362819924421527     
 -0.11072027121352743     
 -0.10759843181227305     
 -0.10417934675469663     
 -0.10051518920797449     
  -9.6603596882215828E-002
  -9.2396054333784505E-002
  -8.7822796482502713E-002
  -8.2503684137032768E-002
  -7.6535357018010300E-002
  -7.0018159938149430E-002
  -6.2980160739938895E-002
  -5.4913783539303387E-002
  -5.4424599315020993E-002
 -0.12650884639150395     
 -0.12660630632707101     
 -0.12226149813495563     
 -0.11920190855850286     
 -0.11603345940925704     
 -0.11282580670045142     
 -0.10952361927609151     
 -0.10604218200733773     
 -0.10237763484290592     
  -9.8613979961576045E-002
  -9.4717975802772372E-002
  -9.0662406910320584E-002
  -8.6324786487438548E-002
  -8.1369786602770458E-002
  -7.6039604078130776E-002
  -7.0321602860863919E-002
  -6.4208789489013041E-002
  -5.7688215922600830E-002
  -5.0031482257562189E-002
  -4.1525025437636136E-002
  -4.1025632439414310E-002
 -0.12147726436395204     
 -0.12150425983918325     
 -0.11666531564604325     
 -0.11291546316126101     
 -0.10904211353019111     
 -0.10501911102661021     
 -0.10093352030757434     
  -9.6854989477166573E-002
  -9.2763450417917989E-002
  -8.8626475371526514E-002
  -8.4197924161815485E-002
  -7.9422280965751255E-002
  -7.4488775966369047E-002
  -6.9324664900363167E-002
  -6.3956730650970697E-002
  -5.8360782235872974E-002
  -5.1860217046119830E-002
  -4.4825613218412386E-002
  -3.7314888828118030E-002
  -2.8918503131008213E-002
  -2.8507835131715221E-002
 -0.11523061433133747     
 -0.11512476026178622     
 -0.10964699987416526     
 -0.10492462619135426     
 -0.10018726975653305     
  -9.5555874762411050E-002
  -9.1035072840476641E-002
  -8.6535821196068813E-002
  -8.1748760286396605E-002
  -7.6948130383879224E-002
  -7.2135811703021899E-002
  -6.7267517185904582E-002
  -6.2412936773254012E-002
  -5.7342003808660981E-002
  -5.1714142092278981E-002
  -4.5757298249337858E-002
  -3.9432935290801052E-002
  -3.2712266868278814E-002
  -2.5126234918600245E-002
  -1.6951137394519193E-002
  -1.6687211256825891E-002
 -0.10714417812155455     
 -0.10690905626920336     
 -0.10057875389669226     
  -9.5127059628989652E-002
  -8.9895834515771419E-002
  -8.4690765937152815E-002
  -7.9388781679487500E-002
  -7.4273100268614931E-002
  -6.9290291146695812E-002
  -6.4494054821902416E-002
  -5.9898656034585961E-002
  -5.4942903545353500E-002
  -4.9867053928622111E-002
  -4.4638800457028588E-002
  -3.9272012431487306E-002
  -3.3785328623721744E-002
  -2.7680480943381023E-002
  -2.1006078793615459E-002
  -1.3519680217667075E-002
  -5.1630089118546415E-003
  -5.1523747117865615E-003
  -9.6919867081889793E-002
  -9.6577802314509242E-002
  -8.9842833270862635E-002
  -8.3636876517838993E-002
  -7.7533638633482699E-002
  -7.1769287413439242E-002
  -6.6351419361688008E-002
  -6.1369255437731536E-002
  -5.6453927915338417E-002
  -5.1509377661867868E-002
  -4.6654924460128748E-002
  -4.1850624602029873E-002
  -3.7186609391819420E-002
  -3.2390714177469214E-002
  -2.7302191200127373E-002
  -2.2057164053052216E-002
  -1.6555866623547768E-002
  -1.0072572811790956E-002
   2.4526698745657918E-004
   6.1067188654626567E-004
   4.7184064219402453E-004
  -8.4822405837717579E-002
  -8.4424188199230185E-002
  -7.6779522934761979E-002
  -6.9959725985543925E-002
  -6.3766577530168997E-002
  -5.8172743472508795E-002
  -5.2600812601649463E-002
  -4.7384054902948537E-002
  -4.2501012493429149E-002
  -3.7937513622034673E-002
  -3.3534640501209079E-002
  -2.9004417403712717E-002
  -2.4632796318131346E-002
  -2.0268021587794179E-002
  -1.5679129782050671E-002
  -1.1127398928313690E-002
  -6.3323808393468224E-003
   2.8647214408747022E-004
   1.1386015067361907E-003
   1.6451374792486905E-003
   1.5882512293001133E-003
  -7.0142520382879867E-002
  -6.9756267415321926E-002
  -6.2090122961034611E-002
  -5.5230822993829899E-002
  -4.8843294487170723E-002
  -4.3051109238910340E-002
  -3.7843384157045128E-002
  -3.3060382812923131E-002
  -2.8579464903276754E-002
  -2.4390370707929120E-002
  -2.0295549422195216E-002
  -1.5956566722787124E-002
  -1.2443249035287970E-002
  -8.9037742008332699E-003
  -3.1198221534291990E-003
   2.7198510432923073E-004
   6.8717844567986323E-004
   1.2307499597221236E-003
   2.3683181168362042E-003
   2.7010563706278759E-003
   2.2570947499157275E-003
  -5.4214000384494178E-002
  -5.3831109577475549E-002
  -4.5673521926258877E-002
  -3.8862086578884125E-002
  -3.3044916651039286E-002
  -2.7677054871481029E-002
  -2.2742764481544282E-002
  -1.8113129991789455E-002
  -1.4512335152611307E-002
  -1.1248783806508889E-002
  -7.7210162546461850E-003
   2.8100020594359495E-005
   3.0712115241340269E-004
   6.2832761904531298E-004
   9.4020644460054504E-004
   1.3612337282767279E-003
   2.0171292578848375E-003
   2.6832347774642510E-003
   3.6885512751594139E-003
   3.6443756997269865E-003
   2.8884556294380588E-003
  -3.6520656361691418E-002
  -3.6203743182951657E-002
  -2.7749480668818983E-002
  -2.1343131255864695E-002
  -1.6544147015539717E-002
  -1.1811522948927235E-002
  -7.3283397759821081E-003
   1.1066434412453441E-004
   4.1691679918078831E-004
   7.1144779699320758E-004
   9.8767556856047705E-004
   1.2749637489823345E-003
   1.6546445667510196E-003
   2.1456542491479482E-003
   2.6197981303310806E-003
   3.0856461992041402E-003
   3.5730672973809103E-003
   4.1115407168622244E-003
   5.0908927974067193E-003
   4.6648400260081426E-003
   3.5545877193475469E-003
  -1.7594818980812187E-002
  -1.7082501847590210E-002
  -4.1911991934699341E-003
   4.1672622949760378E-004
   9.3156497688275195E-004
   1.3551039778618883E-003
   1.7186960929968748E-003
   2.0812977691907313E-003
   2.5483066276203634E-003
   3.0191289909275751E-003
   3.4502500052455217E-003
   3.8573829081923394E-003
   4.2209165884223585E-003
   4.5604456490244477E-003
   4.9133510992398037E-003
   5.2996944642399856E-003
   5.7514085282215043E-003
   6.2753434566292059E-003
   7.2453702538013724E-003
   6.0772280299558196E-003
   4.3208670197056268E-003
   2.0332763376672419E-003
   2.0938993311624718E-003
   3.2673648806010457E-003
   3.9464969118483172E-003
   4.4515737220245889E-003
   4.7808830463012620E-003
   5.0197447013530776E-003
   5.2005706261120900E-003
   5.3264515482664768E-003
   5.4316200509994042E-003
   5.5444807444686422E-003
   5.6720398790799887E-003
   5.8183696215763706E-003
   5.9881770129684370E-003
   6.1868024146502741E-003
   6.4223559548920329E-003
   6.7123181278027919E-003
   7.0755544570659142E-003
   7.6720408345195912E-003
   7.5464406713498461E-003
   5.7216191842254602E-003
   3.0969634482132576E-003
   3.6856731488014772E-003
   5.6753920919741796E-003
   7.2907625588484667E-003
   7.2736036966237518E-003
   7.1271141637488430E-003
   6.8819908711038134E-003
   6.6409391098631032E-003
   6.4311811966053112E-003
   6.2636434486514790E-003
   6.1403948164961194E-003
   6.0598042890580000E-003
   6.0199089723838783E-003
   6.0204177836955339E-003
   6.0621446532063816E-003
   6.1464481280466780E-003
   6.2776278678032225E-003
   6.4673557954217451E-003
   6.7637907366450024E-003
   7.1067147898533157E-003
   7.2418886203057600E-003
 -0.13893231498915634     
 -0.13817777610057891     
 -0.13793235944648496     
 -0.13778998347797192     
 -0.13764871931908970     
 -0.13751760052349354     
 -0.13737085070449434     
 -0.13722770739072518     
 -0.13706969343943309     
 -0.13689884978447964     
 -0.13671020290878108     
 -0.13648210919812109     
 -0.13620529089666319     
 -0.13585761867398435     
 -0.13540699947643067     
 -0.13481376743869461     
 -0.13402303813589939     
 -0.13292494802461241     
 -0.13172712119640925     
 -0.12828223249256393     
 -0.12765446668507882     
 -0.13754667252200772     
 -0.13717062450883186     
 -0.13605688085417858     
 -0.13613062870257342     
 -0.13599966809027267     
 -0.13586225801219659     
 -0.13572435991676213     
 -0.13556763777853181     
 -0.13539228801502215     
 -0.13518981937792915     
 -0.13495031080579067     
 -0.13465844428480667     
 -0.13429693300732728     
 -0.13384242751588818     
 -0.13325511000387247     
 -0.13248947770736599     
 -0.13147527500078521     
 -0.13011597953109691     
 -0.12846442414098486     
 -0.12490683841948454     
 -0.12506097356585019     
 -0.13656828892478812     
 -0.13581178341421382     
 -0.13427849034922518     
 -0.13425417996590408     
 -0.13386672318977427     
 -0.13350751842911882     
 -0.13313858711485577     
 -0.13274823581096812     
 -0.13233037069327497     
 -0.13186893075646644     
 -0.13134673804212985     
 -0.13074249682039668     
 -0.13002779964744116     
 -0.12916293559812062     
 -0.12809945518610535     
 -0.12677708822222747     
 -0.12512502091934710     
 -0.12306809893554627     
 -0.12064891349067486     
 -0.11646922877359046     
 -0.11605666215419524     
 -0.13563035831270376     
 -0.13525746914982181     
 -0.13346432272674885     
 -0.13320296520204059     
 -0.13257769881083642     
 -0.13197454526771338     
 -0.13134355727735983     
 -0.13067571495480321     
 -0.12995552429209828     
 -0.12916846402497972     
 -0.12828792892476987     
 -0.12728494649020225     
 -0.12612203266243407     
 -0.12475567672840331     
 -0.12314055775699635     
 -0.12122733884244782     
 -0.11894873998682308     
 -0.11622372240940709     
 -0.11304167485025331     
 -0.10821947548853554     
 -0.10791853509120880     
 -0.13442874184868442     
 -0.13420465958306468     
 -0.13203813827095542     
 -0.13145791320806019     
 -0.13053982489828303     
 -0.12962636476666770     
 -0.12867273937083762     
 -0.12766686301299912     
 -0.12659016481066468     
 -0.12541786353407289     
 -0.12412564071533598     
 -0.12268392666186938     
 -0.12106309526393313     
 -0.11921681590757133     
 -0.11708510527720530     
 -0.11460247763268909     
 -0.11169428614753031     
 -0.10827067551424058     
 -0.10425790163252581     
  -9.8548025770755568E-002
  -9.8206123685176255E-002
 -0.13288208660569592     
 -0.13276390262226376     
 -0.13022043469837102     
 -0.12924992680318961     
 -0.12797450224687063     
 -0.12668559549523106     
 -0.12534417895892325     
 -0.12393620399573627     
 -0.12244693853989598     
 -0.12086094260761887     
 -0.11914983916260505     
 -0.11727182453482221     
 -0.11517854784439623     
 -0.11281519178826648     
 -0.11011518611844355     
 -0.10699700232401628     
 -0.10334459944025176     
  -9.8972145642895346E-002
  -9.3892161920162864E-002
  -8.7465297915935436E-002
  -8.7068873453510318E-002
 -0.13086917978430482     
 -0.13083912355323535     
 -0.12788104904965228     
 -0.12644538490676960     
 -0.12474741665167577     
 -0.12302615816616164     
 -0.12126032070480862     
 -0.11944044170127308     
 -0.11753988885695799     
 -0.11552530450853636     
 -0.11335797271563341     
 -0.11099135215664621     
 -0.10836732915423107     
 -0.10540971851877626     
 -0.10200360509021157     
  -9.8004226755290080E-002
  -9.3456721713221225E-002
  -8.8349638503325861E-002
  -8.2629199317168223E-002
  -7.5290139720222263E-002
  -7.4812713183335738E-002
 -0.12825276993367379     
 -0.12831840089768148     
 -0.12488908981657600     
 -0.12293041514961894     
 -0.12078066547801251     
 -0.11862322958455732     
 -0.11642393124932279     
 -0.11415711107892276     
 -0.11179206526367545     
 -0.10928948893309511     
 -0.10659746807486373     
 -0.10364222714913747     
 -0.10031126825892916     
  -9.6542857145953884E-002
  -9.2394805486863810E-002
  -8.7815097617724797E-002
  -8.2746877707497668E-002
  -7.6800443310026181E-002
  -6.9959987707284219E-002
  -6.2074019818992833E-002
  -6.1585179671979941E-002
 -0.12488627389735346     
 -0.12504779694214443     
 -0.12114390466637538     
 -0.11866039757189596     
 -0.11603454115283136     
 -0.11338917099525039     
 -0.11069210181825846     
 -0.10790873082541547     
 -0.10499142846823444     
 -0.10186260625667454     
  -9.8433408283570986E-002
  -9.4751251932992248E-002
  -9.0820900514043040E-002
  -8.6593037708890333E-002
  -8.2002848739678474E-002
  -7.6674435832628798E-002
  -7.0683190954711303E-002
  -6.4142183387429608E-002
  -5.7076083672975189E-002
  -4.9003630602895962E-002
  -4.8544191150305852E-002
 -0.12073281920535101     
 -0.12092605328156521     
 -0.11657070220550363     
 -0.11349875679990995     
 -0.11031876429878869     
 -0.10710030692532872     
 -0.10378958037353322     
 -0.10030149454101575     
  -9.6621689928121396E-002
  -9.2839986495388313E-002
  -8.8925156911358424E-002
  -8.4850566055129098E-002
  -8.0501840968966634E-002
  -7.5533873087716710E-002
  -7.0183038458767721E-002
  -6.4444226534972809E-002
  -5.8307704104580527E-002
  -5.1773929971702583E-002
  -4.4097070301929657E-002
  -3.5579297853403483E-002
  -3.5095567839754094E-002
 -0.11567949256715655     
 -0.11579518064709791     
 -0.11094502813073133     
 -0.10718328063829879     
 -0.10330175191898344     
  -9.9270663186234925E-002
  -9.5167132332384316E-002
  -9.1070076170826755E-002
  -8.6959031508952067E-002
  -8.2805627964628675E-002
  -7.8372241719190619E-002
  -7.3576902809685180E-002
  -6.8624196493165451E-002
  -6.3441281075211478E-002
  -5.8052519222564242E-002
  -5.2446190998646405E-002
  -4.5928828484605319E-002
  -3.8878422735702536E-002
  -3.1351878076595313E-002
  -2.2950462800378248E-002
  -2.2548766321102490E-002
 -0.10941018030736366     
 -0.10938334898341956     
 -0.10389868662070385     
  -9.9166998014950575E-002
  -9.4410474418410592E-002
  -8.9759415384720723E-002
  -8.5218887127653895E-002
  -8.0708366847572072E-002
  -7.5909921466492225E-002
  -7.1090770221234653E-002
  -6.6261075145037485E-002
  -6.1373997134707113E-002
  -5.6500715709356379E-002
  -5.1422112395269171E-002
  -4.5780454508009057E-002
  -3.9810680367667023E-002
  -3.3473336398675668E-002
  -2.6743077439901522E-002
  -1.9147440290718437E-002
  -1.0967131434366850E-002
  -1.0706309602503603E-002
 -0.10130490817910336     
 -0.10114118345348758     
  -9.4792744824258909E-002
  -8.9319575287900438E-002
  -8.4068155417923299E-002
  -7.8857354043687822E-002
  -7.3536232059023723E-002
  -6.8402346745405004E-002
  -6.3402418956134757E-002
  -5.8588013464487498E-002
  -5.3977358713261994E-002
  -4.9014270462297456E-002
  -4.3926647163345711E-002
  -3.8688139931630894E-002
  -3.3311194593382193E-002
  -2.7817513995432006E-002
  -2.1704792288096200E-002
  -1.5019447153602462E-002
  -7.5309649748298690E-003
   7.7729113173280169E-004
   7.9398824551883576E-004
  -9.1045250429382427E-002
  -9.0757995427951738E-002
  -8.4004361870355149E-002
  -7.7790016044490484E-002
  -7.1667333740989922E-002
  -6.5885273865719740E-002
  -6.0448550892476666E-002
  -5.5448604176495157E-002
  -5.0527018706065192E-002
  -4.5571067209794591E-002
  -4.0706718044677480E-002
  -3.5892744851975841E-002
  -3.1219664542850436E-002
  -2.6419564350413854E-002
  -2.1325980222304721E-002
  -1.6075837068385942E-002
  -1.0569319500655676E-002
  -4.0844527923765599E-003
   6.0845501216151851E-003
   6.6390228779043461E-003
   6.4781240007309501E-003
  -7.8920046566182747E-002
  -7.8563746405156468E-002
  -7.0900121944527911E-002