# vtk DataFile Version 2.0
3D Unstructured Grid of Linear Triangles
ASCII
DATASET UNSTRUCTURED_GRID
FIELD FieldData  1
TIME 1 1 double
        3600.00000
POINTS     7056 float
      0.00000000E+00  1.00000000E+01  1.00000000E+00
      5.00000000E-01  1.00000000E+01  9.93333333E-01
      1.00000000E+00  1.00000000E+01  9.83333333E-01
      1.50000000E+00  1.00000000E+01  9.73333333E-01
      2.00000000E+00  1.00000000E+01  9.63333333E-01
      2.50000000E+00  1.00000000E+01  9.53333333E-01
      3.00000000E+00  1.00000000E+01  9.43333333E-01
      3.50000000E+00  1.00000000E+01  9.33333333E-01
      4.00000000E+00  1.00000000E+01  9.23333333E-01
      4.50000000E+00  1.00000000E+01  9.13333333E-01
      5.00000000E+00  1.00000000E+01  9.03333333E-01
      5.50000000E+00  1.00000000E+01  8.93333333E-01
      6.00000000E+00  1.00000000E+01  8.83333333E-01
      6.50000000E+00  1.00000000E+01  8.73333333E-01
      7.00000000E+00  1.00000000E+01  8.63333333E-01
      7.50000000E+00  1.00000000E+01  8.53333333E-01
      8.00000000E+00  1.00000000E+01  8.43333333E-01
      8.50000000E+00  1.00000000E+01  8.33333333E-01
      9.00000000E+00  1.00000000E+01  8.23333333E-01
      9.50000000E+00  1.00000000E+01  8.13333333E-01
      1.00000000E+01  1.00000000E+01  8.10000000E-01
      0.00000000E+00  9.50000000E+00  9.83333333E-01
      5.00000000E-01  9.50000000E+00  9.82500000E-01
      1.00000000E+00  9.50000000E+00  9.72500000E-01
      1.50000000E+00  9.50000000E+00  9.62500000E-01
      2.00000000E+00  9.50000000E+00  9.52500000E-01
      2.50000000E+00  9.50000000E+00  9.42500000E-01
      3.00000000E+00  9.50000000E+00  9.32500000E-01
      3.50000000E+00  9.50000000E+00  9.22500000E-01
      4.00000000E+00  9.50000000E+00  9.12500000E-01
      4.50000000E+00  9.50000000E+00  9.02500000E-01
      5.00000000E+00  9.50000000E+00  8.92500000E-01
      5.50000000E+00  9.50000000E+00  8.82500000E-01
      6.00000000E+00  9.50000000E+00  8.72500000E-01
      6.50000000E+00  9.50000000E+00  8.62500000E-01
      7.00000000E+00  9.50000000E+00  8.52500000E-01
      7.50000000E+00  9.50000000E+00  8.42500000E-01
      8.00000000E+00  9.50000000E+00  8.32500000E-01
      8.50000000E+00  9.50000000E+00  8.22500000E-01
      9.00000000E+00  9.50000000E+00  8.12500000E-01
      9.50000000E+00  9.50000000E+00  8.02500000E-01
      1.00000000E+01  9.50000000E+00  8.01666667E-01
      0.00000000E+00  9.00000000E+00  9.58333333E-01
      5.00000000E-01  9.00000000E+00  9.57500000E-01
      1.00000000E+00  9.00000000E+00  9.47500000E-01
      1.50000000E+00  9.00000000E+00  9.37500000E-01
      2.00000000E+00  9.00000000E+00  9.27500000E-01
      2.50000000E+00  9.00000000E+00  9.17500000E-01
      3.00000000E+00  9.00000000E+00  9.07500000E-01
      3.50000000E+00  9.00000000E+00  8.97500000E-01
      4.00000000E+00  9.00000000E+00  8.87500000E-01
      4.50000000E+00  9.00000000E+00  8.77500000E-01
      5.00000000E+00  9.00000000E+00  8.67500000E-01
      5.50000000E+00  9.00000000E+00  8.57500000E-01
      6.00000000E+00  9.00000000E+00  8.47500000E-01
      6.50000000E+00  9.00000000E+00  8.37500000E-01
      7.00000000E+00  9.00000000E+00  8.27500000E-01
      7.50000000E+00  9.00000000E+00  8.17500000E-01
      8.00000000E+00  9.00000000E+00  8.07500000E-01
      8.50000000E+00  9.00000000E+00  7.97500000E-01
      9.00000000E+00  9.00000000E+00  7.87500000E-01
      9.50000000E+00  9.00000000E+00  7.77500000E-01
      1.00000000E+01  9.00000000E+00  7.76666667E-01
      0.00000000E+00  8.50000000E+00  9.33333333E-01
      5.00000000E-01  8.50000000E+00  9.32500000E-01
      1.00000000E+00  8.50000000E+00  9.22500000E-01
      1.50000000E+00  8.50000000E+00  9.12500000E-01
      2.00000000E+00  8.50000000E+00  9.02500000E-01
      2.50000000E+00  8.50000000E+00  8.92500000E-01
      3.00000000E+00  8.50000000E+00  8.82500000E-01
      3.50000000E+00  8.50000000E+00  8.72500000E-01
      4.00000000E+00  8.50000000E+00  8.62500000E-01
      4.50000000E+00  8.50000000E+00  8.52500000E-01
      5.00000000E+00  8.50000000E+00  8.42500000E-01
      5.50000000E+00  8.50000000E+00  8.32500000E-01
      6.00000000E+00  8.50000000E+00  8.22500000E-01
      6.50000000E+00  8.50000000E+00  8.12500000E-01
      7.00000000E+00  8.50000000E+00  8.02500000E-01
      7.50000000E+00  8.50000000E+00  7.92500000E-01
      8.00000000E+00  8.50000000E+00  7.82500000E-01
      8.50000000E+00  8.50000000E+00  7.72500000E-01
      9.00000000E+00  8.50000000E+00  7.62500000E-01
      9.50000000E+00  8.50000000E+00  7.52500000E-01
      1.00000000E+01  8.50000000E+00  7.51666667E-01
      0.00000000E+00  8.00000000E+00  9.08333333E-01
      5.00000000E-01  8.00000000E+00  9.07500000E-01
      1.00000000E+00  8.00000000E+00  8.97500000E-01
      1.50000000E+00  8.00000000E+00  8.87500000E-01
      2.00000000E+00  8.00000000E+00  8.77500000E-01
      2.50000000E+00  8.00000000E+00  8.67500000E-01
      3.00000000E+00  8.00000000E+00  8.57500000E-01
      3.50000000E+00  8.00000000E+00  8.47500000E-01
      4.00000000E+00  8.00000000E+00  8.37500000E-01
      4.50000000E+00  8.00000000E+00  8.27500000E-01
      5.00000000E+00  8.00000000E+00  8.17500000E-01
      5.50000000E+00  8.00000000E+00  8.07500000E-01
      6.00000000E+00  8.00000000E+00  7.97500000E-01
      6.50000000E+00  8.00000000E+00  7.87500000E-01
      7.00000000E+00  8.00000000E+00  7.77500000E-01
      7.50000000E+00  8.00000000E+00  7.67500000E-01
      8.00000000E+00  8.00000000E+00  7.57500000E-01
      8.50000000E+00  8.00000000E+00  7.47500000E-01
      9.00000000E+00  8.00000000E+00  7.37500000E-01
      9.50000000E+00  8.00000000E+00  7.27500000E-01
      1.00000000E+01  8.00000000E+00  7.26666667E-01
      0.00000000E+00  7.50000000E+00  8.83333333E-01
      5.00000000E-01  7.50000000E+00  8.82500000E-01
      1.00000000E+00  7.50000000E+00  8.72500000E-01
      1.50000000E+00  7.50000000E+00  8.62500000E-01
      2.00000000E+00  7.50000000E+00  8.52500000E-01
      2.50000000E+00  7.50000000E+00  8.42500000E-01
      3.00000000E+00  7.50000000E+00  8.32500000E-01
      3.50000000E+00  7.50000000E+00  8.22500000E-01
      4.00000000E+00  7.50000000E+00  8.12500000E-01
      4.50000000E+00  7.50000000E+00  8.02500000E-01
      5.00000000E+00  7.50000000E+00  7.92500000E-01
      5.50000000E+00  7.50000000E+00  7.82500000E-01
      6.00000000E+00  7.50000000E+00  7.72500000E-01
      6.50000000E+00  7.50000000E+00  7.62500000E-01
      7.00000000E+00  7.50000000E+00  7.52500000E-01
      7.50000000E+00  7.50000000E+00  7.42500000E-01
      8.00000000E+00  7.50000000E+00  7.32500000E-01
      8.50000000E+00  7.50000000E+00  7.22500000E-01
      9.00000000E+00  7.50000000E+00  7.12500000E-01
      9.50000000E+00  7.50000000E+00  7.02500000E-01
      1.00000000E+01  7.50000000E+00  7.01666667E-01
      0.00000000E+00  7.00000000E+00  8.58333333E-01
      5.00000000E-01  7.00000000E+00  8.57500000E-01
      1.00000000E+00  7.00000000E+00  8.47500000E-01
      1.50000000E+00  7.00000000E+00  8.37500000E-01
      2.00000000E+00  7.00000000E+00  8.27500000E-01
      2.50000000E+00  7.00000000E+00  8.17500000E-01
      3.00000000E+00  7.00000000E+00  8.07500000E-01
      3.50000000E+00  7.00000000E+00  7.97500000E-01
      4.00000000E+00  7.00000000E+00  7.87500000E-01
      4.50000000E+00  7.00000000E+00  7.77500000E-01
      5.00000000E+00  7.00000000E+00  7.67500000E-01
      5.50000000E+00  7.00000000E+00  7.57500000E-01
      6.00000000E+00  7.00000000E+00  7.47500000E-01
      6.50000000E+00  7.00000000E+00  7.37500000E-01
      7.00000000E+00  7.00000000E+00  7.27500000E-01
      7.50000000E+00  7.00000000E+00  7.17500000E-01
      8.00000000E+00  7.00000000E+00  7.07500000E-01
      8.50000000E+00  7.00000000E+00  6.97500000E-01
      9.00000000E+00  7.00000000E+00  6.87500000E-01
      9.50000000E+00  7.00000000E+00  6.77500000E-01
      1.00000000E+01  7.00000000E+00  6.76666667E-01
      0.00000000E+00  6.50000000E+00  8.33333333E-01
      5.00000000E-01  6.50000000E+00  8.32500000E-01
      1.00000000E+00  6.50000000E+00  8.22500000E-01
      1.50000000E+00  6.50000000E+00  8.12500000E-01
      2.00000000E+00  6.50000000E+00  8.02500000E-01
      2.50000000E+00  6.50000000E+00  7.92500000E-01
      3.00000000E+00  6.50000000E+00  7.82500000E-01
      3.50000000E+00  6.50000000E+00  7.72500000E-01
      4.00000000E+00  6.50000000E+00  7.62500000E-01
      4.50000000E+00  6.50000000E+00  7.52500000E-01
      5.00000000E+00  6.50000000E+00  7.42500000E-01
      5.50000000E+00  6.50000000E+00  7.32500000E-01
      6.00000000E+00  6.50000000E+00  7.22500000E-01
      6.50000000E+00  6.50000000E+00  7.12500000E-01
      7.00000000E+00  6.50000000E+00  7.02500000E-01
      7.50000000E+00  6.50000000E+00  6.92500000E-01
      8.00000000E+00  6.50000000E+00  6.82500000E-01
      8.50000000E+00  6.50000000E+00  6.72500000E-01
      9.00000000E+00  6.50000000E+00  6.62500000E-01
      9.50000000E+00  6.50000000E+00  6.52500000E-01
      1.00000000E+01  6.50000000E+00  6.51666667E-01
      0.00000000E+00  6.00000000E+00  8.08333333E-01
      5.00000000E-01  6.00000000E+00  8.07500000E-01
      1.00000000E+00  6.00000000E+00  7.97500000E-01
      1.50000000E+00  6.00000000E+00  7.87500000E-01
      2.00000000E+00  6.00000000E+00  7.77500000E-01
      2.50000000E+00  6.00000000E+00  7.67500000E-01
      3.00000000E+00  6.00000000E+00  7.57500000E-01
      3.50000000E+00  6.00000000E+00  7.47500000E-01
      4.00000000E+00  6.00000000E+00  7.37500000E-01
      4.50000000E+00  6.00000000E+00  7.27500000E-01
      5.00000000E+00  6.00000000E+00  7.17500000E-01
      5.50000000E+00  6.00000000E+00  7.07500000E-01
      6.00000000E+00  6.00000000E+00  6.97500000E-01
      6.50000000E+00  6.00000000E+00  6.87500000E-01
      7.00000000E+00  6.00000000E+00  6.77500000E-01
      7.50000000E+00  6.00000000E+00  6.67500000E-01
      8.00000000E+00  6.00000000E+00  6.57500000E-01
[...]
POINT_DATA     7056
SCALARS pressure float
LOOKUP_TABLE default
 -0.18587049208638703     
 -0.18478584358459041     
 -0.18458088637661108     
 -0.18443451911922665     
 -0.18430049387205491     
 -0.18417420312350019     
 -0.18407149418783689     
 -0.18394135744027837     
 -0.18383559750840200     
 -0.18369819156910910     
 -0.18355302172556212     
 -0.18338633165326909     
 -0.18317231410586471     
 -0.18291048972715884     
 -0.18256685210311013     
 -0.18211805933557182     
 -0.18151741298492313     
 -0.18067348926364254     
 -0.17989598007937063     
 -0.17697113423569621     
 -0.17658564299035198     
 -0.18402830312458107     
 -0.18319557612481771     
 -0.18217956335701177     
 -0.18242675764837502     
 -0.18240951504969471     
 -0.18239592641108721     
 -0.18236159004467653     
 -0.18230785169802818     
 -0.18223747957154474     
 -0.18213001425287587     
 -0.18199594314506623     
 -0.18181164154801749     
 -0.18156782439639418     
 -0.18123858379005020     
 -0.18079815841125182     
 -0.18020302906332755     
 -0.17940595190360201     
 -0.17833081761015251     
 -0.17711598494104341     
 -0.17413565223501387     
 -0.17412906122749100     
 -0.18327688270474435     
 -0.18227091872124473     
 -0.18088497688854666     
 -0.18111184836833213     
 -0.18085599107270375     
 -0.18064713887634076     
 -0.18042728899565308     
 -0.18018206875862161     
 -0.17990808214504522     
 -0.17959655294838969     
 -0.17922793735517775     
 -0.17878415252017393     
 -0.17823794731550499     
 -0.17755591434840601     
 -0.17670338475070918     
 -0.17562547672843490     
 -0.17427032959568237     
 -0.17256961336938695     
 -0.17065573286967073     
 -0.16696325325959815     
 -0.16601511706609690     
 -0.18265317346267212     
 -0.18222498989745750     
 -0.18061800863051208     
 -0.18071681405737858     
 -0.18031943541827816     
 -0.17995219835110091     
 -0.17955098200361380     
 -0.17910907744119581     
 -0.17861012379221150     
 -0.17803305087189589     
 -0.17735765830062170     
 -0.17655966589721109     
 -0.17559959171028727     
 -0.17444203921451476     
 -0.17304288927883726     
 -0.17135755299612673     
 -0.16934014659647251     
 -0.16693182187948816     
 -0.16421812195071375     
 -0.15973187735137875     
 -0.15891982310644528     
 -0.18189568579061446     
 -0.18171655085982064     
 -0.17975973706322571     
 -0.17964373971281436     
 -0.17905019170678671     
 -0.17846336954532380     
 -0.17781849394152188     
 -0.17709892492850171     
 -0.17628641379038171     
 -0.17535703721517024     
 -0.17428500800298860     
 -0.17303771125042919     
 -0.17157864494285927     
 -0.16987322654318993     
 -0.16787801792863996     
 -0.16554364933980395     
 -0.16281817466902454     
 -0.15964017275809786     
 -0.15604590832776158     
 -0.15071477300717603     
 -0.15001509640674257     
 -0.18091736649355278     
 -0.18088695110575972     
 -0.17862333424680021     
 -0.17821517644245574     
 -0.17735002396947352     
 -0.17645208299370335     
 -0.17546415536319923     
 -0.17436620914435136     
 -0.17313749798161315     
 -0.17175200707214941     
 -0.17018174274166814     
 -0.16839781498777226     
 -0.16636029925071738     
 -0.16402628086862864     
 -0.16134668728563667     
 -0.15826739027577336     
 -0.15472601155170498     
 -0.15065247170641963     
 -0.14611443458466708     
 -0.14010913011813439     
 -0.13953851615466636     
 -0.17957856615819914     
 -0.17960916310820338     
 -0.17700920751926041     
 -0.17620716577063514     
 -0.17497048169256305     
 -0.17366084190971587     
 -0.17222739918980592     
 -0.17065131069999170     
 -0.16891413882707881     
 -0.16698783353303501     
 -0.16484073760337201     
 -0.16243488940808534     
 -0.15972805131853660     
 -0.15667025174208107     
 -0.15320116819939344     
 -0.14927150604365388     
 -0.14490989958814662     
 -0.14010310314899499     
 -0.13484133065062640     
 -0.12827909709553259     
 -0.12772690998832323     
 -0.17769535647117954     
 -0.17769762078237131     
 -0.17469967404695586     
 -0.17338529904645816     
 -0.17166908492309496     
 -0.16984479353143461     
 -0.16787368690520232     
 -0.16573386354385281     
 -0.16339958994175144     
 -0.16084094227670429     
 -0.15802140680027146     
 -0.15489604540164914     
 -0.15141267501289363     
 -0.14756005542441428     
 -0.14336258373360072     
 -0.13878505680117348     
 -0.13378799431791152     
 -0.12832594705162642     
 -0.12237345581644650     
 -0.11528879221866568     
 -0.11472437973603779     
 -0.17498941940814275     
 -0.17488350198688843     
 -0.17141835275313844     
 -0.16947991643515337     
 -0.16718503444522276     
 -0.16475055433482674     
 -0.16214251674258684     
 -0.15933755763467383     
 -0.15630596438560512     
 -0.15300812484279511     
 -0.14941509780393764     
 -0.14555784644909694     
 -0.14143026256804922     
 -0.13699489197288711     
 -0.13221635847733854     
 -0.12704712898711076     
 -0.12145319399675714     
 -0.11536821673539700     
 -0.10847316401033082     
 -0.10052580497002241     
  -9.9889596703272979E-002
 -0.17113553459417111     
 -0.17086438797048553     
 -0.16687441059051378     
 -0.16420185701370774     
 -0.16121101243297181     
 -0.15805254482106629     
 -0.15469349134766494     
 -0.15110511257371304     
 -0.14730719543665999     
 -0.14333341052717843     
 -0.13915799051065003     
 -0.13475322981092661     
 -0.13008479364169484     
 -0.12511056325754663     
 -0.11980989256544819     
 -0.11406420559575796     
 -0.10761673939788706     
 -0.10066467788487864     
  -9.3253116047463697E-002
  -8.4963087238996482E-002
  -8.4340978947364725E-002
 -0.16577310713819451     
 -0.16532655201322344     
 -0.16070919951574750     
 -0.15717347976091153     
 -0.15334912295510827     
 -0.14934551326450754     
 -0.14522608146350155     
 -0.14099666882351472     
 -0.13663603383579981     
 -0.13212413405277637     
 -0.12742852614082517     
 -0.12252915452676064     
 -0.11739155207613469     
 -0.11180260048162380     
 -0.10573597688363084     
  -9.9294661330815562E-002
  -9.2514605702142372E-002
  -8.5243902246811498E-002
  -7.7245989108450722E-002
  -6.8489120053588495E-002
  -6.7864505540354142E-002
 -0.15842657358840245     
 -0.15786971944396383     
 -0.15246293288919671     
 -0.14796535348744549     
 -0.14336276253490732     
 -0.13871396239814657     
 -0.13400712679587368     
 -0.12922412228602154     
 -0.12434796805867057     
 -0.11937373170922005     
 -0.11419041960560485     
 -0.10860083527108388     
 -0.10278053465483465     
  -9.6734899590029955E-002
  -9.0500538250298898E-002
  -8.3779205341679847E-002
  -7.6579468495398845E-002
  -6.8946577210600921E-002
  -6.1008334377295435E-002
  -5.2269180445641918E-002
  -5.1741060932783717E-002
 -0.14857947903291577     
 -0.14804099792293091     
 -0.14196821431571205     
 -0.13673920801227943     
 -0.13148905853904039     
 -0.12624332438739869     
 -0.12101599079690654     
 -0.11575221880326673     
 -0.11022070984137657     
 -0.10456423591959031     
  -9.8828936389477345E-002
  -9.3034021070022579E-002
  -8.7120083051010488E-002
  -8.0774965545878902E-002
  -7.4205987974534926E-002
  -6.7383243303898319E-002
  -6.0419940997921751E-002
  -5.2877051267986926E-002
  -4.4811294405748749E-002
  -3.6253394807723958E-002
  -3.5888120039027381E-002
 -0.13657948469020856     
 -0.13604262219713659     
 -0.12940860842902926     
 -0.12349736932821742     
 -0.11768230783473793     
 -0.11176733303305764     
 -0.10578527471848893     
  -9.9877946207756182E-002
  -9.4070536320111919E-002
  -8.8352678211297928E-002
  -8.2356540585638821E-002
  -7.6305692156988597E-002
  -7.0175441916947245E-002
  -6.3989085924196262E-002
  -5.7765933123517174E-002
  -5.1100921730496685E-002
  -4.4161205113897421E-002
  -3.6976872700698098E-002
  -2.9307824644052145E-002
  -2.1060372054676563E-002
  -2.0840510815027368E-002
 -0.12240881473441394     
 -0.12186480778633643     
 -0.11472561642690718     
 -0.10790994823240040     
 -0.10126717682818366     
  -9.4883580135306081E-002
  -8.8775224894774726E-002
  -8.2572918410517351E-002
  -7.6496788468665158E-002
  -7.0537623468025099E-002
  -6.4695767257235040E-002
  -5.9035962344736036E-002
  -5.3129336714241276E-002
  -4.7141183236330486E-002
  -4.1071857907524843E-002
  -3.4876773854722980E-002
  -2.8479001290286715E-002
  -2.1756049363563519E-002
  -1.4580480972846458E-002
  -7.6315771708248669E-003
  -7.8701363156484690E-003
 -0.10564872636175147     
 -0.10508208608032268     
  -9.7266420446388779E-002
  -9.0150114446180735E-002
  -8.3106258478218217E-002
  -7.6280481172536149E-002
  -6.9800226489713499E-002
  -6.3739349242669358E-002
  -5.8044088872539541E-002
  -5.2330890577305868E-002
  -4.6719246446018513E-002
  -4.1215111657564509E-002
  -3.5862200660183877E-002
  -3.0434419152644419E-002
  -2.4845052275933498E-002
  -1.8760788698126845E-002
  -1.3389273189538784E-002
  -7.3216526784122913E-003
   1.4858960394633946E-003
   1.1279696093293484E-003
   3.1633740388401383E-004
  -8.6908864415537218E-002
  -8.6341338391060687E-002
  -7.7969996846884423E-002
  -7.0271567730716897E-002
  -6.3164565023685018E-002
  -5.6442458655111355E-002
  -4.9885659800523730E-002
  -4.4057186484688732E-002
  -3.8766285651430532E-002
  -3.3740091568649502E-002
  -2.8714190718808388E-002
  -2.3561448338966038E-002
  -1.8609084441821189E-002
  -1.4171515163592231E-002
  -9.2974053183448938E-003
   3.6238345800579776E-004
   1.6033484322981631E-003
   2.7024385296123164E-003
   5.1553782819762795E-003
   4.9032642317970365E-003
   2.0958597256342144E-003
  -6.5927656792175063E-002
  -6.5461466482972297E-002
  -5.7141406400680363E-002
  -4.9229887266628705E-002
  -4.2072131211749880E-002
  -3.5460517363105515E-002
  -2.8454848669158844E-002
  -2.3434715582457237E-002
  -1.9201630705095576E-002
  -1.5249712361086503E-002
  -1.1142649859866556E-002
  -4.9429707913251917E-003
   5.8640810346005396E-004
   1.5872264453944099E-003
   2.5688011558937609E-003
   3.6848299415210683E-003
   5.4189993101449747E-003
   7.1934581071003839E-003
   9.8306343342258237E-003
   8.4835932966324107E-003
   5.0192233026718856E-003
  -4.3882129686702687E-002
  -4.3410346056298316E-002
  -3.4910173438438101E-002
  -2.6678349939233310E-002
  -1.9608637994770778E-002
  -1.3553149446822786E-002
   1.8550113205187578E-004
   1.2723124613031375E-003
   2.3383618118056016E-003
   3.2961764841963966E-003
   4.2380960102890875E-003
   5.1340407348638949E-003
   6.1965970559541006E-003
   7.7068490880667995E-003
   9.2272814319442151E-003
   1.0640953355718463E-002
   1.1949955619266341E-002
   1.3054875006278256E-002
   1.5058225617343929E-002
   1.1828830270498027E-002
   7.1428145027394377E-003
  -2.0762819287168863E-002
  -2.0310916218673935E-002
  -1.1457393472432201E-002
   5.1640307651064615E-004
   1.8295909192387690E-003
   3.0366115974039313E-003
   3.9992997709331554E-003
   5.1311987115698673E-003
   6.3617797061008910E-003
   7.3667631669639289E-003
   8.3253648565141964E-003
   9.2423392966134842E-003
   1.0037370985581429E-002
   1.0719215857181013E-002
   1.1396189785763492E-002
   1.2094369793169297E-002
   1.2804678853211729E-002
   1.3523097957146867E-002
   1.4593244103544269E-002
   1.3926040257288682E-002
   9.6513425898256781E-003
  -1.3135430002165691E-002
  -1.0322183716994072E-002
  -2.3164706157442474E-003
   7.7342012920787327E-004
   2.9969673304381618E-003
   5.4395473097399675E-003
   7.1867922970282267E-003
   8.0119516847497567E-003
   8.3364063883116773E-003
   8.5082202572505112E-003
   8.6235913320401036E-003
   8.7284470097227958E-003
   8.8512028298263837E-003
   9.0083803699496142E-003
   9.2089356496760175E-003
   9.4607456938110516E-003
   9.7791204201649710E-003
   1.0190452623532362E-002
   1.0788092545263958E-002
   1.1460629489785717E-002
   1.1724227553591903E-002
 -0.18002510964770702     
 -0.17898345356443263     
 -0.17877849706352764     
 -0.17863137722509723     
 -0.17849661241615067     
 -0.17836966003030105     
 -0.17826634783732881     
 -0.17813572648420059     
 -0.17802950198054471     
 -0.17789170667204907     
 -0.17774614896010826     
 -0.17757904393047358     
 -0.17736457327544278     
 -0.17710218948244319     
 -0.17675788079881335     
 -0.17630826573073183     
 -0.17570664146827611     
 -0.17486178177186285     
 -0.17408210191895701     
 -0.17115516988539012     
 -0.17086127627842598     
 -0.17823280410970319     
 -0.17747919483139846     
 -0.17646503609735784     
 -0.17671237769037804     
 -0.17669559262218987     
 -0.17668242975400189     
 -0.17664851272138998     
 -0.17659511991799839     
 -0.17652497332927808     
 -0.17641760824363750     
 -0.17628343451125217     
 -0.17609883172231081     
 -0.17585447358731207     
 -0.17552446516611822     
 -0.17508303052960156     
 -0.17448667872495274     
 -0.17368815926596429     
 -0.17261147367258203     
 -0.17139389137257988     
 -0.16841179139442977     
 -0.16849378702870021     
 -0.17748253506942846     
 -0.17656179497986838     
 -0.17517797106139282     
 -0.17540481576099812     
 -0.17514918143361821     
 -0.17494028537261971     
 -0.17472030839164795     
 -0.17447484403940949     
 -0.17420045735853529     
 -0.17388834920772983     
 -0.17351897515378245     
 -0.17307424696720466     
 -0.17252691289256794     
 -0.17184357055548793     
 -0.17098950031993015     
 -0.16990977479836381     
 -0.16855238153231772     
 -0.16684887108910615     
 -0.16493055718173852     
 -0.16123572046405021     
 -0.16037423943545631     
 -0.17685746649753628     
 -0.17651734076233286     
 -0.17491146926061996     
 -0.17501045258757197     
 -0.17461319201348019     
 -0.17424573417045688     
 -0.17384414252365368     
 -0.17340165405709487     
 -0.17290191493913817     
 -0.17232386928846943     
 -0.17164731304462522     
 -0.17084793303146548     
 -0.16988621011610208     
 -0.16872661894481983     
 -0.16732483869440021     
 -0.16563609417797792     
 -0.16361469799416803     
 -0.16120205215312766     
 -0.15848269560146094     
 -0.15399313839210099     
 -0.15326149445500661     
 -0.17609913355732870     
 -0.17600999167009113     
 -0.17405321635629351     
 -0.17393723779523979     
 -0.17334346050322966     
 -0.17275605390621776     
 -0.17211042420775011     
 -0.17138991138572690     
 -0.17057625385549663     
 -0.16964548718694158     
 -0.16857172019150107     
 -0.16732216813514444     
 -0.16586011943957626     
 -0.16415096024735848     
 -0.16215151872770039     
 -0.15981238698848987     
 -0.15708160737265819     
 -0.15389785131514383     
 -0.15029682768789812     
 -0.14496119671447688     
 -0.14433547446871367     
 -0.17512001566700133     
 -0.17518039524047829     
 -0.17291596240301871     
 -0.17250746849406082     
 -0.17164171369963854     
 -0.17074286259661348     
 -0.16975382662477531     
 -0.16865447720871327     
 -0.16742391992019082     
 -0.16603593097875599     
 -0.16446237521629961     
 -0.16267454075960822     
 -0.16063258923600687     
 -0.15829352288023832     
 -0.15560831643861192     
 -0.15252290389066597     
 -0.14897514479028745     
 -0.14489382599685449     
 -0.14034262112207316     
 -0.13432650462513998     
 -0.13382288318997257     
 -0.17377988601284494     
 -0.17390118707607077     
 -0.17130000571192261     
 -0.17049717487302921     
 -0.16925950160991313     
 -0.16794841194156823     
 -0.16651297957889943     
 -0.16493413037297688     
 -0.16319346341743671     
 -0.16126314190565827     
 -0.15911141328396355     
 -0.15670030405649485     
 -0.15398763140107977     
 -0.15092355696437695     
 -0.14744781908429072     
 -0.14350873762090613     
 -0.13913402309612119     
 -0.13431359102932178     
 -0.12903704681605832     
 -0.12246390492983127     
 -0.12197066400526696     
 -0.17189441604548203     
 -0.17198686458694273     
 -0.16898739681258165     
 -0.16767140485223114     
 -0.16595308644798776     
 -0.16412576789817288     
 -0.16215105511823766     
 -0.16000706183820351     
 -0.15766796796940477     
 -0.15510388429735042     
 -0.15227836363995037     
 -0.14914668771450360     
 -0.14565600564330949     
 -0.14179202853232203     
 -0.13758152994669201     
 -0.13299049763448684     
 -0.12797929399726574     
 -0.12250269284608864     
 -0.11653427621408455     
 -0.10944132049735134     
 -0.10892772827399869     
 -0.16918485388581184     
 -0.16916803444093712     
 -0.16570004573289618     
 -0.16375816070387830     
 -0.16145959580374070     
 -0.15902073567648922     
 -0.15640768106125447     
 -0.15359711317758495     
 -0.15055948007323913     
 -0.14725517328800780     
 -0.14365311731343849     
 -0.13978347160482379     
 -0.13564303197419297     
 -0.13119426412116811     
 -0.12640192008147250     
 -0.12121851594910113     
 -0.11560946331768412     
 -0.10951246487161882     
 -0.10260615091483861     
  -9.4648685331058025E-002
  -9.4053567832500726E-002
 -0.16532441627259342     
 -0.16513951630263313     
 -0.16114533813457757     
 -0.15846795320516979     
 -0.15547192009489511     
 -0.15230765728147680     
 -0.14894253326749474     
 -0.14534686375147352     
 -0.14153762640260739     
 -0.13755139738503785     
 -0.13336322726711447     
 -0.12894521370207326     
 -0.12426331642692677     
 -0.11927505236459382     
 -0.11396017248392343     
 -0.10820531514740767     
 -0.10174547506285993     
  -9.4778584018678100E-002
  -8.7350159102265720E-002
  -7.9055581729849694E-002
  -7.8465624268075476E-002
 -0.15995249549669657     
 -0.15958713504386215     
 -0.15496492350955615     
 -0.15142303772175000     
 -0.14759242074655096     
 -0.14357945526235891     
 -0.13944769856994171     
 -0.13520577549163224     
 -0.13083225927903339     
 -0.12630733987986847     
 -0.12159849243124370     
 -0.11668503893389108     
 -0.11153494359865640     
 -0.10593890721445690     
  -9.9858500898166405E-002
  -9.3403133515496908E-002
  -8.6607870743069096E-002
  -7.9327964807331050E-002
  -7.1316082263651923E-002
  -6.2551106431340292E-002
  -6.1947277896282946E-002
 -0.15259345910702632     
 -0.15211111723274851     
 -0.14669924995645853     
 -0.14218995716510716     
 -0.13757469538471478     
 -0.13291307556613655     
 -0.12819321608535306     
 -0.12339715839745828     
 -0.11850729290708395     
 -0.11351998192855491     
 -0.10832850342115842     
 -0.10272810955961499     
  -9.6894851211813654E-002
  -9.0835428793183959E-002
  -8.4587085570866957E-002
  -7.7858228533792942E-002
  -7.0646831883034500E-002
  -6.3002266795257597E-002
  -5.5050615804929162E-002
  -4.6307283525038663E-002
  -4.5792672803646475E-002
 -0.14272674078206224     
 -0.14225395539569258     
 -0.13617025644611094     
 -0.13092775704990947     
 -0.12566428543021663     
 -0.12040489383467894     
 -0.11516382581114482     
 -0.10988971433485333     
 -0.10435004894055655     
  -9.8680983266400707E-002
  -9.2932519178384507E-002
  -8.7124581208754104E-002
  -8.1203292437840441E-002
  -7.4847245965608461E-002
  -6.8268016730394426E-002
  -6.1434977214143482E-002
  -5.4460315662635685E-002
  -4.6911079119741392E-002
  -3.8837399238602549E-002
  -3.0273733522868041E-002
  -2.9914881160270319E-002
 -0.13069990988009078     
 -0.13021843321244159     
 -0.12357304556821759     
 -0.11764732662444065     
 -0.11181960789247067     
 -0.10589793693167880     
  -9.9902866411529262E-002
  -9.3982048456871359E-002
  -8.8161814266341121E-002
  -8.2434218599421100E-002
  -7.6429700197443481E-002
  -7.0369303633746882E-002
  -6.4229493619805733E-002
  -5.8034016422840784E-002
  -5.1804523170342037E-002
  -4.5132515828950032E-002
  -3.8186464423388189E-002
  -3.0995938429103566E-002
  -2.3322309193477660E-002
  -1.5072476853901246E-002
  -1.4854555274715237E-002
 -0.11650216074584659     
 -0.11600185307646795     
 -0.10885620020565373     