# vtk DataFile Version 2.0
3D Unstructured Grid of Linear Triangles
ASCII
DATASET UNSTRUCTURED_GRID
FIELD FieldData  1
TIME 1 1 double
        1801.06401
POINTS     7056 float
      0.00000000E+00  1.00000000E+01  1.00000000E+00
      5.00000000E-01  1.00000000E+01  9.93333333E-01
      1.00000000E+00  1.00000000E+01  9.83333333E-01
      1.50000000E+00  1.00000000E+01  9.73333333E-01
      2.00000000E+00  1.00000000E+01  9.63333333E-01
      2.50000000E+00  1.00000000E+01  9.53333333E-01
      3.00000000E+00  1.00000000E+01  9.43333333E-01
      3.50000000E+00  1.00000000E+01  9.33333333E-01
      4.00000000E+00  1.00000000E+01  9.23333333E-01
      4.50000000E+00  1.00000000E+01  9.13333333E-01
      5.00000000E+00  1.00000000E+01  9.03333333E-01
      5.50000000E+00  1.00000000E+01  8.93333333E-01
      6.00000000E+00  1.00000000E+01  8.83333333E-01
      6.50000000E+00  1.00000000E+01  8.73333333E-01
      7.00000000E+00  1.00000000E+01  8.63333333E-01
      7.50000000E+00  1.00000000E+01  8.53333333E-01
      8.00000000E+00  1.00000000E+01  8.43333333E-01
      8.50000000E+00  1.00000000E+01  8.33333333E-01
      9.00000000E+00  1.00000000E+01  8.23333333E-01
      9.50000000E+00  1.00000000E+01  8.13333333E-01
      1.00000000E+01  1.00000000E+01  8.10000000E-01
      0.00000000E+00  9.50000000E+00  9.83333333E-01
      5.00000000E-01  9.50000000E+00  9.82500000E-01
      1.00000000E+00  9.50000000E+00  9.72500000E-01
      1.50000000E+00  9.50000000E+00  9.62500000E-01
      2.00000000E+00  9.50000000E+00  9.52500000E-01
      2.50000000E+00  9.50000000E+00  9.42500000E-01
      3.00000000E+00  9.50000000E+00  9.32500000E-01
      3.50000000E+00  9.50000000E+00  9.22500000E-01
      4.00000000E+00  9.50000000E+00  9.12500000E-01
      4.50000000E+00  9.50000000E+00  9.02500000E-01
      5.00000000E+00  9.50000000E+00  8.92500000E-01
      5.50000000E+00  9.50000000E+00  8.82500000E-01
      6.00000000E+00  9.50000000E+00  8.72500000E-01
      6.50000000E+00  9.50000000E+00  8.62500000E-01
      7.00000000E+00  9.50000000E+00  8.52500000E-01
      7.50000000E+00  9.50000000E+00  8.42500000E-01
      8.00000000E+00  9.50000000E+00  8.32500000E-01
      8.50000000E+00  9.50000000E+00  8.22500000E-01
      9.00000000E+00  9.50000000E+00  8.12500000E-01
      9.50000000E+00  9.50000000E+00  8.02500000E-01
      1.00000000E+01  9.50000000E+00  8.01666667E-01
      0.00000000E+00  9.00000000E+00  9.58333333E-01
      5.00000000E-01  9.00000000E+00  9.57500000E-01
      1.00000000E+00  9.00000000E+00  9.47500000E-01
      1.50000000E+00  9.00000000E+00  9.37500000E-01
      2.00000000E+00  9.00000000E+00  9.27500000E-01
      2.50000000E+00  9.00000000E+00  9.17500000E-01
      3.00000000E+00  9.00000000E+00  9.07500000E-01
      3.50000000E+00  9.00000000E+00  8.97500000E-01
      4.00000000E+00  9.00000000E+00  8.87500000E-01
      4.50000000E+00  9.00000000E+00  8.77500000E-01
      5.00000000E+00  9.00000000E+00  8.67500000E-01
      5.50000000E+00  9.00000000E+00  8.57500000E-01
      6.00000000E+00  9.00000000E+00  8.47500000E-01
      6.50000000E+00  9.00000000E+00  8.37500000E-01
      7.00000000E+00  9.00000000E+00  8.27500000E-01
      7.50000000E+00  9.00000000E+00  8.17500000E-01
      8.00000000E+00  9.00000000E+00  8.07500000E-01
      8.50000000E+00  9.00000000E+00  7.97500000E-01
      9.00000000E+00  9.00000000E+00  7.87500000E-01
      9.50000000E+00  9.00000000E+00  7.77500000E-01
      1.00000000E+01  9.00000000E+00  7.76666667E-01
      0.00000000E+00  8.50000000E+00  9.33333333E-01
      5.00000000E-01  8.50000000E+00  9.32500000E-01
      1.00000000E+00  8.50000000E+00  9.22500000E-01
      1.50000000E+00  8.50000000E+00  9.12500000E-01
      2.00000000E+00  8.50000000E+00  9.02500000E-01
      2.50000000E+00  8.50000000E+00  8.92500000E-01
      3.00000000E+00  8.50000000E+00  8.82500000E-01
      3.50000000E+00  8.50000000E+00  8.72500000E-01
      4.00000000E+00  8.50000000E+00  8.62500000E-01
      4.50000000E+00  8.50000000E+00  8.52500000E-01
      5.00000000E+00  8.50000000E+00  8.42500000E-01
      5.50000000E+00  8.50000000E+00  8.32500000E-01
      6.00000000E+00  8.50000000E+00  8.22500000E-01
      6.50000000E+00  8.50000000E+00  8.12500000E-01
      7.00000000E+00  8.50000000E+00  8.02500000E-01
      7.50000000E+00  8.50000000E+00  7.92500000E-01
      8.00000000E+00  8.50000000E+00  7.82500000E-01
      8.50000000E+00  8.50000000E+00  7.72500000E-01
      9.00000000E+00  8.50000000E+00  7.62500000E-01
      9.50000000E+00  8.50000000E+00  7.52500000E-01
      1.00000000E+01  8.50000000E+00  7.51666667E-01
      0.00000000E+00  8.00000000E+00  9.08333333E-01
      5.00000000E-01  8.00000000E+00  9.07500000E-01
      1.00000000E+00  8.00000000E+00  8.97500000E-01
      1.50000000E+00  8.00000000E+00  8.87500000E-01
      2.00000000E+00  8.00000000E+00  8.77500000E-01
      2.50000000E+00  8.00000000E+00  8.67500000E-01
      3.00000000E+00  8.00000000E+00  8.57500000E-01
      3.50000000E+00  8.00000000E+00  8.47500000E-01
      4.00000000E+00  8.00000000E+00  8.37500000E-01
      4.50000000E+00  8.00000000E+00  8.27500000E-01
      5.00000000E+00  8.00000000E+00  8.17500000E-01
      5.50000000E+00  8.00000000E+00  8.07500000E-01
      6.00000000E+00  8.00000000E+00  7.97500000E-01
      6.50000000E+00  8.00000000E+00  7.87500000E-01
      7.00000000E+00  8.00000000E+00  7.77500000E-01
      7.50000000E+00  8.00000000E+00  7.67500000E-01
      8.00000000E+00  8.00000000E+00  7.57500000E-01
      8.50000000E+00  8.00000000E+00  7.47500000E-01
      9.00000000E+00  8.00000000E+00  7.37500000E-01
      9.50000000E+00  8.00000000E+00  7.27500000E-01
      1.00000000E+01  8.00000000E+00  7.26666667E-01
      0.00000000E+00  7.50000000E+00  8.83333333E-01
      5.00000000E-01  7.50000000E+00  8.82500000E-01
      1.00000000E+00  7.50000000E+00  8.72500000E-01
      1.50000000E+00  7.50000000E+00  8.62500000E-01
      2.00000000E+00  7.50000000E+00  8.52500000E-01
      2.50000000E+00  7.50000000E+00  8.42500000E-01
      3.00000000E+00  7.50000000E+00  8.32500000E-01
      3.50000000E+00  7.50000000E+00  8.22500000E-01
      4.00000000E+00  7.50000000E+00  8.12500000E-01
      4.50000000E+00  7.50000000E+00  8.02500000E-01
      5.00000000E+00  7.50000000E+00  7.92500000E-01
      5.50000000E+00  7.50000000E+00  7.82500000E-01
      6.00000000E+00  7.50000000E+00  7.72500000E-01
      6.50000000E+00  7.50000000E+00  7.62500000E-01
      7.00000000E+00  7.50000000E+00  7.52500000E-01
      7.50000000E+00  7.50000000E+00  7.42500000E-01
      8.00000000E+00  7.50000000E+00  7.32500000E-01
      8.50000000E+00  7.50000000E+00  7.22500000E-01
      9.00000000E+00  7.50000000E+00  7.12500000E-01
      9.50000000E+00  7.50000000E+00  7.02500000E-01
      1.00000000E+01  7.50000000E+00  7.01666667E-01
      0.00000000E+00  7.00000000E+00  8.58333333E-01
      5.00000000E-01  7.00000000E+00  8.57500000E-01
      1.00000000E+00  7.00000000E+00  8.47500000E-01
      1.50000000E+00  7.00000000E+00  8.37500000E-01
      2.00000000E+00  7.00000000E+00  8.27500000E-01
      2.50000000E+00  7.00000000E+00  8.17500000E-01
      3.00000000E+00  7.00000000E+00  8.07500000E-01
      3.50000000E+00  7.00000000E+00  7.97500000E-01
      4.00000000E+00  7.00000000E+00  7.87500000E-01
      4.50000000E+00  7.00000000E+00  7.77500000E-01
      5.00000000E+00  7.00000000E+00  7.67500000E-01
      5.50000000E+00  7.00000000E+00  7.57500000E-01
      6.00000000E+00  7.00000000E+00  7.47500000E-01
      6.50000000E+00  7.00000000E+00  7.37500000E-01
      7.00000000E+00  7.00000000E+00  7.27500000E-01
      7.50000000E+00  7.00000000E+00  7.17500000E-01
      8.00000000E+00  7.00000000E+00  7.07500000E-01
      8.50000000E+00  7.00000000E+00  6.97500000E-01
      9.00000000E+00  7.00000000E+00  6.87500000E-01
      9.50000000E+00  7.00000000E+00  6.77500000E-01
      1.00000000E+01  7.00000000E+00  6.76666667E-01
      0.00000000E+00  6.50000000E+00  8.33333333E-01
      5.00000000E-01  6.50000000E+00  8.32500000E-01
      1.00000000E+00  6.50000000E+00  8.22500000E-01
      1.50000000E+00  6.50000000E+00  8.12500000E-01
      2.00000000E+00  6.50000000E+00  8.02500000E-01
      2.50000000E+00  6.50000000E+00  7.92500000E-01
      3.00000000E+00  6.50000000E+00  7.82500000E-01
      3.50000000E+00  6.50000000E+00  7.72500000E-01
      4.00000000E+00  6.50000000E+00  7.62500000E-01
      4.50000000E+00  6.50000000E+00  7.52500000E-01
      5.00000000E+00  6.50000000E+00  7.42500000E-01
      5.50000000E+00  6.50000000E+00  7.32500000E-01
      6.00000000E+00  6.50000000E+00  7.22500000E-01
      6.50000000E+00  6.50000000E+00  7.12500000E-01
      7.00000000E+00  6.50000000E+00  7.02500000E-01
      7.50000000E+00  6.50000000E+00  6.92500000E-01
      8.00000000E+00  6.50000000E+00  6.82500000E-01
      8.50000000E+00  6.50000000E+00  6.72500000E-01
      9.00000000E+00  6.50000000E+00  6.62500000E-01
      9.50000000E+00  6.50000000E+00  6.52500000E-01
      1.00000000E+01  6.50000000E+00  6.51666667E-01
      0.00000000E+00  6.00000000E+00  8.08333333E-01
      5.00000000E-01  6.00000000E+00  8.07500000E-01
      1.00000000E+00  6.00000000E+00  7.97500000E-01
      1.50000000E+00  6.00000000E+00  7.87500000E-01
      2.00000000E+00  6.00000000E+00  7.77500000E-01
      2.50000000E+00  6.00000000E+00  7.67500000E-01
      3.00000000E+00  6.00000000E+00  7.57500000E-01
      3.50000000E+00  6.00000000E+00  7.47500000E-01
      4.00000000E+00  6.00000000E+00  7.37500000E-01
      4.50000000E+00  6.00000000E+00  7.27500000E-01
      5.00000000E+00  6.00000000E+00  7.17500000E-01
      5.50000000E+00  6.00000000E+00  7.07500000E-01
      6.00000000E+00  6.00000000E+00  6.97500000E-01
      6.50000000E+00  6.00000000E+00  6.87500000E-01
      7.00000000E+00  6.00000000E+00  6.77500000E-01
      7.50000000E+00  6.00000000E+00  6.67500000E-01
      8.00000000E+00  6.00000000E+00  6.57500000E-01
[...]
POINT_DATA     7056
SCALARS pressure float
LOOKUP_TABLE default
  -4.1805157574212458E-002
  -4.0327683075504793E-002
  -3.9497359281167904E-002
  -3.9004929929883365E-002
  -3.8640247099112762E-002
  -3.8357766344470724E-002
  -3.8127671281002085E-002
  -3.7936477244427287E-002
  -3.7768117793535901E-002
  -3.7615156468007969E-002
  -3.7466725062337489E-002
  -3.7314147034090139E-002
  -3.7148219821926683E-002
  -3.6955024317139394E-002
  -3.6720220594515719E-002
  -3.6419835532437793E-002
  -3.6013889716545816E-002
  -3.5426723989847711E-002
  -3.4491914956186510E-002
  -3.2092963711093006E-002
  -3.0554369753552940E-002
  -3.8755721516815986E-002
  -3.8223746635079540E-002
  -3.7064290216322446E-002
  -3.6526598715038813E-002
  -3.6117949970024162E-002
  -3.5793466962859934E-002
  -3.5526235571096784E-002
  -3.5299755995189537E-002
  -3.5097969082526007E-002
  -3.4912582676142161E-002
  -3.4729375261750781E-002
  -3.4538873259976545E-002
  -3.4327978495228721E-002
  -3.4078395743849126E-002
  -3.3767120859632668E-002
  -3.3355831849369168E-002
  -3.2773170349370009E-002
  -3.1863105652228732E-002
  -3.0340020576859028E-002
  -2.7361079407210838E-002
  -2.7347960558718951E-002
  -3.6079922411873210E-002
  -3.5483851395063895E-002
  -3.3790220650268536E-002
  -3.2867899135492942E-002
  -3.2123494387941535E-002
  -3.1494366404403090E-002
  -3.0949987233295988E-002
  -3.0482324757526876E-002
  -3.0078221804570798E-002
  -2.9712525165400582E-002
  -2.9362442912689392E-002
  -2.9006418693513385E-002
  -2.8622075426481222E-002
  -2.8182468696260822E-002
  -2.7654367322978626E-002
  -2.6989787252630432E-002
  -2.6114430316725563E-002
  -2.4891016258790914E-002
  -2.3027065728331284E-002
  -1.9773769646449620E-002
  -1.9897099637272056E-002
  -3.4044366881859606E-002
  -3.3526663447137089E-002
  -3.1147391167777906E-002
  -2.9658353803893783E-002
  -2.8603800435862622E-002
  -2.7809818653704334E-002
  -2.7179409996227533E-002
  -2.6657336927396785E-002
  -2.6205577641467019E-002
  -2.5795030823072128E-002
  -2.5400252062127992E-002
  -2.4997234616948298E-002
  -2.4559906165699183E-002
  -2.4057289400235660E-002
  -2.3448674036844377E-002
  -2.2671507200049509E-002
  -2.1617101277323292E-002
  -2.0111030536614227E-002
  -1.7793462875425277E-002
  -1.2904269877413147E-002
  -1.3118585164783052E-002
  -3.2069932178538228E-002
  -3.1572070794344237E-002
  -2.8637489799406335E-002
  -2.7027109460977652E-002
  -2.5899794020289243E-002
  -2.5045476222260537E-002
  -2.4362030733435042E-002
  -2.3791329461336153E-002
  -2.3293458456792378E-002
  -2.2837539429092706E-002
  -2.2395962772752576E-002
  -2.1941346920192006E-002
  -2.1442166802106349E-002
  -2.0856235736568869E-002
  -2.0130608557349407E-002
  -1.9187246130429894E-002
  -1.7840424062271289E-002
  -1.5335525627673922E-002
  -1.1749821881724824E-002
  -6.8768312814687215E-003
  -7.1925678077065132E-003
  -3.0070158301954673E-002
  -2.9686061969746522E-002
  -2.6657147524023220E-002
  -2.4966209374240881E-002
  -2.3770513959584943E-002
  -2.2852668235331438E-002
  -2.2109444830585499E-002
  -2.1480838611561547E-002
  -2.0924741567883293E-002
  -2.0405554476485597E-002
  -1.9891761042697662E-002
  -1.9354313648487304E-002
  -1.8753506450286690E-002
  -1.8017130707068476E-002
  -1.6874260456103511E-002
  -1.5321995956478016E-002
  -1.3271437032864836E-002
  -1.0437850437136218E-002
  -6.6590116555916836E-003
   4.0419683978077908E-006
   3.8339982511589192E-006
  -2.8412658203809005E-002
  -2.8136498822078002E-002
  -2.5038392658897440E-002
  -2.3266899591338444E-002
  -2.1995175625511218E-002
  -2.1001589183870267E-002
  -2.0177675850076807E-002
  -1.9459676091467537E-002
  -1.8807054359739374E-002
  -1.8174172812014326E-002
  -1.7445794712052643E-002
  -1.6560052804746626E-002
  -1.5594321992804704E-002
  -1.4485631108504553E-002
  -1.3151598001832489E-002
  -1.1486722776609821E-002
  -9.2937570419939549E-003
  -6.2313602236381263E-003
   4.2883862096571796E-006
   1.4160130111613554E-005
   1.7979878296149051E-005
  -2.7015998428022197E-002
  -2.6819543590246346E-002
  -2.3652775692796668E-002
  -2.1794222756350394E-002
  -2.0428174804444432E-002
  -1.9322151026065017E-002
  -1.8362990987944413E-002
  -1.7387834644319360E-002
  -1.6342377820730159E-002
  -1.5373503767958568E-002
  -1.4435234674559736E-002
  -1.3479837984861357E-002
  -1.2451522542348674E-002
  -1.1280991477544362E-002
  -9.8731062897042809E-003
  -8.0540296095431580E-003
  -5.5603767521789525E-003
   1.5217264993927377E-007
   1.3280284210091979E-005
   2.6630491159697461E-005
   2.7628028866367332E-005
  -2.5783870063847136E-002
  -2.5647875438691889E-002
  -2.2407840482467172E-002
  -2.0442433493196150E-002
  -1.8937448641256689E-002
  -1.7587345162992124E-002
  -1.6106288399094129E-002
  -1.4828160457244631E-002
  -1.3707839155434019E-002
  -1.2685183803162886E-002
  -1.1700292054297099E-002
  -1.0697796499777541E-002
  -9.6193847839420900E-003
  -8.3751727521026460E-003
  -6.8586113771407931E-003
  -4.6828919843603526E-003
  -1.0271283981509436E-003
   6.1509827878074236E-006
   2.2050896073762592E-005
   3.6137687005804929E-005
   3.5363886385530926E-005
  -2.4639185918220001E-002
  -2.4550633377546472E-002
  -2.1222330945884136E-002
  -1.9110435575499865E-002
  -1.7246115892838827E-002
  -1.5334531388755474E-002
  -1.3748524290714109E-002
  -1.2412977885317512E-002
  -1.1241923022823267E-002
  -1.0169874350193052E-002
  -9.1377708643780812E-003
  -8.0694355951562331E-003
  -6.9291003162544546E-003
  -5.6580415803541891E-003
  -3.6732214500013313E-003
   3.2415898650634167E-007
   5.0319055883265435E-006
   1.3441521572509721E-005
   3.1325369449217491E-005
   4.4051891072609676E-005
   4.2711248268840285E-005
  -2.3511529768443288E-002
  -2.3459863701770722E-002
  -2.0011559219260570E-002
  -1.7622647051772557E-002
  -1.5111547868122962E-002
  -1.3089002920276463E-002
  -1.1441365802546660E-002
  -1.0049839153880920E-002
  -8.8208087918042154E-003
  -7.6671196323945283E-003
  -6.6030367203599406E-003
  -5.4862981620903035E-003
  -4.0335675081891809E-003
  -2.6028787352027618E-003
   1.5188221531685680E-006
   5.8750394746891675E-006
   1.2302494725669058E-005
   2.2024791513272064E-005
   3.8726121307047572E-005
   5.1644238712372042E-005
   5.0204573833275414E-005
  -2.2326704939575549E-002
  -2.2294052466257791E-002
  -1.8680983626026139E-002
  -1.5529087454432135E-002
  -1.2871497766130781E-002
  -1.0777648112696530E-002
  -9.0610655247127109E-003
  -7.5810560284326435E-003
  -6.3200064601768380E-003
  -4.9412934686195800E-003
  -3.6841902057302167E-003
  -2.4351859472976412E-003
   1.0308434840211311E-006
   3.8159298554301392E-006
   7.5073406422716620E-006
   1.3388041148325125E-005
   2.0058695692006990E-005
   2.9031621332882382E-005
   4.5840235003325463E-005
   5.9439358668074832E-005
   5.8287231876903664E-005
  -2.0994528604524103E-002
  -2.0959566155498006E-002
  -1.6834947008642170E-002
  -1.3198409968108395E-002
  -1.0438180167855299E-002
  -8.2471834813516998E-003
  -6.4898612384635549E-003
  -4.7217701318567921E-003
  -3.2192497467998515E-003
  -1.2064314677602476E-003
   1.9033198214206758E-006
   4.4304226635683275E-006
   7.2684656216492402E-006
   1.1575309066960582E-005
   1.5975031093768048E-005
   2.0936569242719860E-005
   2.7230575712845240E-005
   3.6236525800963916E-005
   5.3244008401045397E-005
   6.7914430247744320E-005
   6.7351631101077755E-005
  -1.9353792604986989E-002
  -1.9325045479270445E-002
  -1.4315279152423021E-002
  -1.0491284651086492E-002
  -7.6453917297564867E-003
  -5.2790759842425783E-003
  -3.2348634952670385E-003
   9.0221042720111394E-007
   3.8192405936348147E-006
   6.1848073181708543E-006
   9.1846464240403103E-006
   1.3353068439417711E-005
   1.6684309500410003E-005
   2.0108247247526616E-005
   2.4015923414826788E-005
   2.8820231818350769E-005
   3.5127470466550603E-005
   4.4256183722865864E-005
   6.1496438571110156E-005
   7.7553237934410734E-005
   7.7837160382925928E-005
  -1.6849038816248361E-002
  -1.6879035434976170E-002
  -1.1197009071904063E-002
  -7.1177551968138958E-003
  -4.1701485396626343E-003
   1.2363182348645102E-006
   5.0963829995762499E-006
   8.8381181581090760E-006
   1.3305116360600453E-005
   1.7110276818600716E-005
   2.0224996992304525E-005
   2.3107753535766683E-005
   2.6092506325084473E-005
   2.9362750250784785E-005
   3.3221944518103933E-005
   3.8061510899765412E-005
   4.4468369193161267E-005
   5.3746291932893553E-005
   7.1228042575263684E-005
   8.8955568945010941E-005
   9.0279621990963855E-005
  -1.2940836029007936E-002
  -1.3053014125115718E-002
  -7.0337562427999854E-003
  -1.4419644358088343E-003
   4.7873750980763577E-006
   1.0782429757292246E-005
   1.6899505240010357E-005
   2.1911958845151526E-005
   2.5671779722294633E-005
   2.8835276556080216E-005
   3.1732894826175641E-005
   3.4531264952843389E-005
   3.7484897443609927E-005
   4.0789429454622395E-005
   4.4697279822874875E-005
   4.9607974357968401E-005
   5.6134716067691946E-005
   6.5576609133633342E-005
   8.3301713925117274E-005
   1.0294203297400405E-004
   1.0541558010109507E-004
  -7.8750157890621324E-003
  -7.9895996268521067E-003
   2.1576655775840678E-006
   1.0256676634593192E-005
   1.8503412499689658E-005
   2.7188897971325002E-005
   3.2785012953398193E-005
   3.7074896202233774E-005
   4.0633634183087245E-005
   4.3735899498012296E-005
   4.6641131025138286E-005
   4.9495101729924729E-005
   5.2493922626879586E-005
   5.5865679443407855E-005
   5.9861555729895656E-005
   6.4867363026725327E-005
   7.1518254881248176E-005
   8.1127541925886095E-005
   9.9098487916800216E-005
   1.2080907506477288E-004
   1.2437776121191867E-004
   1.2190744693161728E-006
   3.9971714027434534E-006
   1.7230093849216853E-005
   3.1107555710440770E-005
   4.1633577272968583E-005
   4.8591332362112491E-005
   5.3886279214192029E-005
   5.8133281888340409E-005
   6.1738928204387250E-005
   6.4923352194420100E-005
   6.7900537199740228E-005
   7.0851025093823642E-005
   7.3946778463099117E-005
   7.7413572988140319E-005
   8.1520850420004117E-005
   8.6648079244940973E-005
   9.3435491183398848E-005
   1.0321372874697892E-004
   1.2142793879434466E-004
   1.4510264370062027E-004
   1.4926241660449414E-004
   2.9495068705511110E-005
   3.1378463208761797E-005
   5.1259529313946127E-005
   6.8628326415011334E-005
   7.8277278134180885E-005
   8.5231602412398229E-005
   9.0631468582425337E-005
   9.5035469538074099E-005
   9.8777457666287605E-005
   1.0210554552678282E-004
   1.0521274148965426E-004
   1.0828903542814458E-004
   1.1151634432857297E-004
   1.1511180763187233E-004
   1.1935585482395959E-004
   1.2463446390647542E-004
   1.3158592096187190E-004
   1.4154113371849756E-004
   1.5994259722714935E-004
   1.8405784101729159E-004
   1.8607472659841386E-004
   1.2771511745266454E-004
   1.2008940564033711E-004
   1.5283334258914304E-004
   1.8119118833053165E-004
   2.0169239410794857E-004
   2.1985567797810175E-004
   2.3700617108203032E-004
   2.5372569463634709E-004
   2.7036587094046629E-004
   2.8717723605050678E-004
   3.0437317207621404E-004
   3.2216630978036952E-004
   3.4079632559285366E-004
   3.6056075476063729E-004
   3.8186925780869102E-004
   4.0532050688467136E-004
   4.3189249597175224E-004
   4.6353229542911607E-004
   5.0727566515764637E-004
   5.6168017491359137E-004
   4.6160863845642143E-004
   1.6963401228503952E-004
   1.8013925499698629E-004
   2.1755486879408175E-004
   2.6025679026322394E-004
   2.9194644746804820E-004
   3.2121364599392105E-004
   3.4980829407015550E-004
   3.7847344798027104E-004
   4.0760385628871819E-004
   4.3746526028315836E-004
   4.6828115815999684E-004
   5.0027990982660323E-004
   5.3373058665311503E-004
   5.6898225929798857E-004
   6.0652248277945310E-004
   6.4707372956566804E-004
   6.9179456754488774E-004
   7.4285500393605878E-004
   8.0683480161379464E-004
   8.8821201260652909E-004
   9.4654450397836372E-004
  -3.6253670705939871E-002
  -3.4873412779958188E-002
  -3.4006262991372389E-002
  -3.3492636563420893E-002
  -3.3113006593860433E-002
  -3.2819136026149706E-002
  -3.2580035898791097E-002
  -3.2381328839117506E-002
  -3.2206518333763985E-002
  -3.2047675661268954E-002
  -3.1893607691838126E-002
  -3.1735300220798845E-002
  -3.1563179844654524E-002
  -3.1362979750107198E-002
  -3.1119855552850732E-002
  -3.0809181219931786E-002
  -3.0390081430812566E-002
  -2.9785797779673204E-002
  -2.8828123951643709E-002
  -2.6447809502147434E-002
  -2.5036947555795972E-002
  -3.3255240679556514E-002
  -3.2931674516408535E-002
  -3.1722538469176234E-002
  -3.1158624574370072E-002
  -3.0732032301050035E-002
  -3.0394059170480055E-002
  -3.0116415725997818E-002
  -2.9881570428609481E-002
  -2.9672859874542559E-002
  -2.9481351259007291E-002
  -2.9292548515504037E-002
  -2.9096631978912612E-002
  -2.8880311991890069E-002
  -2.8625225980260592E-002
  -2.8308485337252783E-002
  -2.7892428851755968E-002
  -2.7307506199381715E-002
  -2.6397463005139555E-002
  -2.4802054494551386E-002
  -2.1721286295713908E-002
  -2.1809312422641117E-002
  -3.0504994337086439E-002
  -3.0092007782080484E-002
  -2.8372621145316433E-002
  -2.7444639804743660E-002
  -2.6705008707906198E-002
  -2.6080710943905162E-002
  -2.5530530752529732E-002
  -2.5038916009465301E-002
  -2.4610712467722961E-002
  -2.4223773589119122E-002
  -2.3853871135014193E-002
  -2.3478220047593694E-002
  -2.3073301301823720E-002
  -2.2611014582095697E-002
  -2.2056779705624360E-002
  -2.1360966201860506E-002
  -2.0447136563915964E-002
  -1.9176138383305869E-002
  -1.7246555413249688E-002
  -1.3929959286414953E-002
  -1.4097955930723854E-002
  -2.8438971315312513E-002
  -2.8094841243693037E-002
  -2.5735995845213498E-002
  -2.4180399369325263E-002
  -2.3069365781918431E-002
  -2.2234648105084163E-002
  -2.1572968753072533E-002
  -2.1025841584336333E-002
  -2.0553407606936629E-002
  -2.0124857837112823E-002
  -1.9713422146392795E-002
  -1.9294046573899395E-002
  -1.8839730745807332E-002
  -1.8318607775130516E-002
  -1.7689072377881081E-002
  -1.6888171846789569E-002
  -1.5804086899251030E-002
  -1.4260580127128965E-002
  -1.1920667762367280E-002
  -6.9965653984670334E-003
  -7.2309832278749210E-003
  -2.6473676299945962E-002
  -2.6146002938954502E-002
  -2.3107025226296752E-002
  -2.1415940749762157E-002
  -2.0237849441461484E-002
  -1.9348506962573668E-002
  -1.8639010140692330E-002
  -1.8047868004173705E-002
  -1.7533172082292305E-002
  -1.7062613420095966E-002
  -1.6607587944780400E-002
  -1.6139978078073960E-002
  -1.5627814183372179E-002
  -1.5027705702305397E-002
  -1.4284907709615271E-002
  -1.3322528687228283E-002
  -1.1969277204040660E-002
  -9.4449051711410978E-003
  -5.8105191589619964E-003
  -9.0356593957066091E-004
  -1.2232831752692003E-003
  -2.4426018526169838E-002
  -2.4168073893053865E-002
  -2.1027726609555927E-002
  -1.9265879506706225E-002
  -1.8027147700598076E-002
  -1.7079922522101925E-002
  -1.6315097320396547E-002
  -1.5669756323989165E-002
  -1.5100228461030391E-002
  -1.4569856237744684E-002
  -1.4045246424632325E-002
  -1.3496774158472644E-002
  -1.2886331309605039E-002
  -1.2146727520336046E-002
  -1.1011120146351007E-002
  -9.4326703292307926E-003
  -7.3539043576133067E-003
  -4.4867783340977532E-003
  -6.8434220526959006E-004
   5.9441181524430989E-003
   5.9332317737149486E-003
  -2.2707373946147490E-002
  -2.2534489010178332E-002
  -1.9339028000328880E-002
  -1.7506088420275789E-002
  -1.6197494663347054E-002
  -1.5179326510458918E-002
  -1.4338306936003475E-002
  -1.3607073434424626E-002
  -1.2943931816744672E-002
  -1.2306691077701307E-002
  -1.1598616056188348E-002
  -1.0696369820804272E-002
  -9.7129711962381134E-003
  -8.5862683587929547E-003
  -7.2326639540812422E-003
  -5.5477595163042227E-003
  -3.3316497763838187E-003
  -2.5231655065136060E-004
   5.9033790882076385E-003
   6.0599980663626242E-003
   6.0336410776155418E-003
  -2.1264810428637222E-002
  -2.1155001547412209E-002
  -1.7902209238157218E-002
  -1.5989920952549048E-002
  -1.4593133615342310E-002
  -1.3467467920549288E-002
  -1.2496855016107138E-002
  -1.1541872553587556E-002
  -1.0477740030162067E-002
  -9.4914151165094753E-003
  -8.5372073387143220E-003
  -7.5666709383753116E-003
  -6.5244659226776722E-003
  -5.3405419488588768E-003
  -3.9194590179864623E-003
  -2.0870133688933438E-003
   4.1595023137629237E-004
   5.9037223948278008E-003
   6.0034700312539399E-003
   6.1145320596229132E-003
   6.0839987896095220E-003
  -1.9996556427376314E-002
  -1.9934134191172147E-002
  -1.6617558903520558E-002
  -1.4605884904152617E-002
  -1.3075803303118961E-002
  -1.1739225801083376E-002
  -1.0237946849388934E-002
  -8.9376881029229940E-003
  -7.7990788650279782E-003
  -6.7620136231225959E-003
  -5.7651205870607580E-003
  -4.7521686210964670E-003
  -3.6645973567160490E-003
  -2.4117644972564858E-003
  -8.8437819066995694E-004
   1.2952235067376534E-003
   4.9096349886705590E-003
   5.9849004325964409E-003
   6.0475475127771310E-003
   6.1544890066413671E-003
   6.1209124848158230E-003
  -1.8821725825424809E-002
  -1.8795853326287134E-002
  -1.5400201150855202E-002
  -1.3248630760147227E-002
  -1.1394100887314997E-002
  -9.4519100775282815E-003
  -7.8404418043516600E-003
  -6.4865573333004389E-003
  -5.3020575379340747E-003
  -4.2196903561116886E-003
  -3.1796662047448281E-003
  -2.1047286553794718E-003
  -9.5759325151345814E-004
   3.1841844737242789E-004
   2.3079824366937763E-003
   5.9320071174202215E-003
   5.9848547266407783E-003
   6.0260176628500143E-003
   6.0826653662934159E-003
   6.1864061968505369E-003
   6.1516474850752470E-003
  -1.7667436835105420E-002
  -1.7669036076946937E-002
  -1.4160649057381515E-002
  -1.1766283185287220E-002
  -9.2227402072065021E-003
  -7.1706781182619816E-003
  -5.5034493017328285E-003
  -4.0986494067893888E-003
  -2.8604996302805993E-003
  -1.6999799655987313E-003
  -6.2986355519854690E-004
   4.8992128526921487E-004
   1.9463842264015902E-003
   3.3788437480958841E-003
   5.9522885642528467E-003
   5.9941708291315100E-003
   6.0227741172684899E-003
   6.0580140537921734E-003
   6.1113793259662888E-003
   6.2146225084865545E-003
   6.1794242832614718E-003
  -1.6457782023866160E-002
  -1.6469780191255636E-002
  -1.2805376841903623E-002
  -9.6417665153758058E-003
  -6.9489331498197946E-003
  -4.8325488803643273E-003
  -3.1022652721247623E-003
  -1.6130191156760549E-003
  -3.4473855905680056E-004
   1.0346543008914180E-003
   2.2956858974763784E-003
   3.5462921646021647E-003
   5.9491359031459334E-003
   5.9784969264627796E-003
   6.0049852792603301E-003
   6.0276477986059371E-003
   6.0527811848841099E-003
   6.0853490978307430E-003
   6.1379080434442032E-003
   6.2416070278897891E-003
   6.2064763201691575E-003
  -1.5101596930402222E-002
  -1.5100747956577381E-002
  -1.0959581014206630E-002
  -7.2771511719604328E-003
  -4.4892735163973912E-003
  -2.2828765866714528E-003
  -5.1409411643793036E-004
   1.2574984752320021E-003
   2.7603068622147359E-003
   4.7527429167044744E-003
   5.9597235945582057E-003
   5.9827305763580163E-003
   6.0045315306116957E-003
   6.0210571191729474E-003
   6.0382254160881955E-003
   6.0572127690575331E-003
   6.0805085935233946E-003
   6.1122893119505833E-003
   6.1646301928117838E-003
   6.2693910551694879E-003
   6.2346843633304507E-003
  -1.3438518106908806E-002
  -1.3432581178182300E-002
  -8.3997950686762746E-003
  -4.5407127035484909E-003
  -1.6746200145925335E-003
   6.9978989721535792E-004
   2.7467605589830938E-003
   5.9388168602396794E-003
   5.9734699416187616E-003
   5.9953879285209325E-003
   6.0132067213281440E-003
   6.0277173849993815E-003
   6.0410684144021499E-003
   6.0544878177131185E-003
   6.0693982982524750E-003
   6.0871605586113242E-003
   6.1098074954758358E-003
   6.1413053861878557E-003
   6.1936895709051891E-003
   6.2999562685629434E-003
   6.2659532625378997E-003
  -1.0925291110438386E-002
  -1.0973083751608494E-002
  -5.2450920907466400E-003