# vtk DataFile Version 2.0
3D Unstructured Grid of Linear Triangles
ASCII
DATASET UNSTRUCTURED_GRID
FIELD FieldData  1
TIME 1 1 double
        3600.00000
POINTS     7056 float
      0.00000000E+00  1.00000000E+01  1.00000000E+00
      5.00000000E-01  1.00000000E+01  9.93333333E-01
      1.00000000E+00  1.00000000E+01  9.83333333E-01
      1.50000000E+00  1.00000000E+01  9.73333333E-01
      2.00000000E+00  1.00000000E+01  9.63333333E-01
      2.50000000E+00  1.00000000E+01  9.53333333E-01
      3.00000000E+00  1.00000000E+01  9.43333333E-01
      3.50000000E+00  1.00000000E+01  9.33333333E-01
      4.00000000E+00  1.00000000E+01  9.23333333E-01
      4.50000000E+00  1.00000000E+01  9.13333333E-01
      5.00000000E+00  1.00000000E+01  9.03333333E-01
      5.50000000E+00  1.00000000E+01  8.93333333E-01
      6.00000000E+00  1.00000000E+01  8.83333333E-01
      6.50000000E+00  1.00000000E+01  8.73333333E-01
      7.00000000E+00  1.00000000E+01  8.63333333E-01
      7.50000000E+00  1.00000000E+01  8.53333333E-01
      8.00000000E+00  1.00000000E+01  8.43333333E-01
      8.50000000E+00  1.00000000E+01  8.33333333E-01
      9.00000000E+00  1.00000000E+01  8.23333333E-01
      9.50000000E+00  1.00000000E+01  8.13333333E-01
      1.00000000E+01  1.00000000E+01  8.10000000E-01
      0.00000000E+00  9.50000000E+00  9.83333333E-01
      5.00000000E-01  9.50000000E+00  9.82500000E-01
      1.00000000E+00  9.50000000E+00  9.72500000E-01
      1.50000000E+00  9.50000000E+00  9.62500000E-01
      2.00000000E+00  9.50000000E+00  9.52500000E-01
      2.50000000E+00  9.50000000E+00  9.42500000E-01
      3.00000000E+00  9.50000000E+00  9.32500000E-01
      3.50000000E+00  9.50000000E+00  9.22500000E-01
      4.00000000E+00  9.50000000E+00  9.12500000E-01
      4.50000000E+00  9.50000000E+00  9.02500000E-01
      5.00000000E+00  9.50000000E+00  8.92500000E-01
      5.50000000E+00  9.50000000E+00  8.82500000E-01
      6.00000000E+00  9.50000000E+00  8.72500000E-01
      6.50000000E+00  9.50000000E+00  8.62500000E-01
      7.00000000E+00  9.50000000E+00  8.52500000E-01
      7.50000000E+00  9.50000000E+00  8.42500000E-01
      8.00000000E+00  9.50000000E+00  8.32500000E-01
      8.50000000E+00  9.50000000E+00  8.22500000E-01
      9.00000000E+00  9.50000000E+00  8.12500000E-01
      9.50000000E+00  9.50000000E+00  8.02500000E-01
      1.00000000E+01  9.50000000E+00  8.01666667E-01
      0.00000000E+00  9.00000000E+00  9.58333333E-01
      5.00000000E-01  9.00000000E+00  9.57500000E-01
      1.00000000E+00  9.00000000E+00  9.47500000E-01
      1.50000000E+00  9.00000000E+00  9.37500000E-01
      2.00000000E+00  9.00000000E+00  9.27500000E-01
      2.50000000E+00  9.00000000E+00  9.17500000E-01
      3.00000000E+00  9.00000000E+00  9.07500000E-01
      3.50000000E+00  9.00000000E+00  8.97500000E-01
      4.00000000E+00  9.00000000E+00  8.87500000E-01
      4.50000000E+00  9.00000000E+00  8.77500000E-01
      5.00000000E+00  9.00000000E+00  8.67500000E-01
      5.50000000E+00  9.00000000E+00  8.57500000E-01
      6.00000000E+00  9.00000000E+00  8.47500000E-01
      6.50000000E+00  9.00000000E+00  8.37500000E-01
      7.00000000E+00  9.00000000E+00  8.27500000E-01
      7.50000000E+00  9.00000000E+00  8.17500000E-01
      8.00000000E+00  9.00000000E+00  8.07500000E-01
      8.50000000E+00  9.00000000E+00  7.97500000E-01
      9.00000000E+00  9.00000000E+00  7.87500000E-01
      9.50000000E+00  9.00000000E+00  7.77500000E-01
      1.00000000E+01  9.00000000E+00  7.76666667E-01
      0.00000000E+00  8.50000000E+00  9.33333333E-01
      5.00000000E-01  8.50000000E+00  9.32500000E-01
      1.00000000E+00  8.50000000E+00  9.22500000E-01
      1.50000000E+00  8.50000000E+00  9.12500000E-01
      2.00000000E+00  8.50000000E+00  9.02500000E-01
      2.50000000E+00  8.50000000E+00  8.92500000E-01
      3.00000000E+00  8.50000000E+00  8.82500000E-01
      3.50000000E+00  8.50000000E+00  8.72500000E-01
      4.00000000E+00  8.50000000E+00  8.62500000E-01
      4.50000000E+00  8.50000000E+00  8.52500000E-01
      5.00000000E+00  8.50000000E+00  8.42500000E-01
      5.50000000E+00  8.50000000E+00  8.32500000E-01
      6.00000000E+00  8.50000000E+00  8.22500000E-01
      6.50000000E+00  8.50000000E+00  8.12500000E-01
      7.00000000E+00  8.50000000E+00  8.02500000E-01
      7.50000000E+00  8.50000000E+00  7.92500000E-01
      8.00000000E+00  8.50000000E+00  7.82500000E-01
      8.50000000E+00  8.50000000E+00  7.72500000E-01
      9.00000000E+00  8.50000000E+00  7.62500000E-01
      9.50000000E+00  8.50000000E+00  7.52500000E-01
      1.00000000E+01  8.50000000E+00  7.51666667E-01
      0.00000000E+00  8.00000000E+00  9.08333333E-01
      5.00000000E-01  8.00000000E+00  9.07500000E-01
      1.00000000E+00  8.00000000E+00  8.97500000E-01
      1.50000000E+00  8.00000000E+00  8.87500000E-01
      2.00000000E+00  8.00000000E+00  8.77500000E-01
      2.50000000E+00  8.00000000E+00  8.67500000E-01
      3.00000000E+00  8.00000000E+00  8.57500000E-01
      3.50000000E+00  8.00000000E+00  8.47500000E-01
      4.00000000E+00  8.00000000E+00  8.37500000E-01
      4.50000000E+00  8.00000000E+00  8.27500000E-01
      5.00000000E+00  8.00000000E+00  8.17500000E-01
      5.50000000E+00  8.00000000E+00  8.07500000E-01
      6.00000000E+00  8.00000000E+00  7.97500000E-01
      6.50000000E+00  8.00000000E+00  7.87500000E-01
      7.00000000E+00  8.00000000E+00  7.77500000E-01
      7.50000000E+00  8.00000000E+00  7.67500000E-01
      8.00000000E+00  8.00000000E+00  7.57500000E-01
      8.50000000E+00  8.00000000E+00  7.47500000E-01
      9.00000000E+00  8.00000000E+00  7.37500000E-01
      9.50000000E+00  8.00000000E+00  7.27500000E-01
      1.00000000E+01  8.00000000E+00  7.26666667E-01
      0.00000000E+00  7.50000000E+00  8.83333333E-01
      5.00000000E-01  7.50000000E+00  8.82500000E-01
      1.00000000E+00  7.50000000E+00  8.72500000E-01
      1.50000000E+00  7.50000000E+00  8.62500000E-01
      2.00000000E+00  7.50000000E+00  8.52500000E-01
      2.50000000E+00  7.50000000E+00  8.42500000E-01
      3.00000000E+00  7.50000000E+00  8.32500000E-01
      3.50000000E+00  7.50000000E+00  8.22500000E-01
      4.00000000E+00  7.50000000E+00  8.12500000E-01
      4.50000000E+00  7.50000000E+00  8.02500000E-01
      5.00000000E+00  7.50000000E+00  7.92500000E-01
      5.50000000E+00  7.50000000E+00  7.82500000E-01
      6.00000000E+00  7.50000000E+00  7.72500000E-01
      6.50000000E+00  7.50000000E+00  7.62500000E-01
      7.00000000E+00  7.50000000E+00  7.52500000E-01
      7.50000000E+00  7.50000000E+00  7.42500000E-01
      8.00000000E+00  7.50000000E+00  7.32500000E-01
      8.50000000E+00  7.50000000E+00  7.22500000E-01
      9.00000000E+00  7.50000000E+00  7.12500000E-01
      9.50000000E+00  7.50000000E+00  7.02500000E-01
      1.00000000E+01  7.50000000E+00  7.01666667E-01
      0.00000000E+00  7.00000000E+00  8.58333333E-01
      5.00000000E-01  7.00000000E+00  8.57500000E-01
      1.00000000E+00  7.00000000E+00  8.47500000E-01
      1.50000000E+00  7.00000000E+00  8.37500000E-01
      2.00000000E+00  7.00000000E+00  8.27500000E-01
      2.50000000E+00  7.00000000E+00  8.17500000E-01
      3.00000000E+00  7.00000000E+00  8.07500000E-01
      3.50000000E+00  7.00000000E+00  7.97500000E-01
      4.00000000E+00  7.00000000E+00  7.87500000E-01
      4.50000000E+00  7.00000000E+00  7.77500000E-01
      5.00000000E+00  7.00000000E+00  7.67500000E-01
      5.50000000E+00  7.00000000E+00  7.57500000E-01
      6.00000000E+00  7.00000000E+00  7.47500000E-01
      6.50000000E+00  7.00000000E+00  7.37500000E-01
      7.00000000E+00  7.00000000E+00  7.27500000E-01
      7.50000000E+00  7.00000000E+00  7.17500000E-01
      8.00000000E+00  7.00000000E+00  7.07500000E-01
      8.50000000E+00  7.00000000E+00  6.97500000E-01
      9.00000000E+00  7.00000000E+00  6.87500000E-01
      9.50000000E+00  7.00000000E+00  6.77500000E-01
      1.00000000E+01  7.00000000E+00  6.76666667E-01
      0.00000000E+00  6.50000000E+00  8.33333333E-01
      5.00000000E-01  6.50000000E+00  8.32500000E-01
      1.00000000E+00  6.50000000E+00  8.22500000E-01
      1.50000000E+00  6.50000000E+00  8.12500000E-01
      2.00000000E+00  6.50000000E+00  8.02500000E-01
      2.50000000E+00  6.50000000E+00  7.92500000E-01
      3.00000000E+00  6.50000000E+00  7.82500000E-01
      3.50000000E+00  6.50000000E+00  7.72500000E-01
      4.00000000E+00  6.50000000E+00  7.62500000E-01
      4.50000000E+00  6.50000000E+00  7.52500000E-01
      5.00000000E+00  6.50000000E+00  7.42500000E-01
      5.50000000E+00  6.50000000E+00  7.32500000E-01
      6.00000000E+00  6.50000000E+00  7.22500000E-01
      6.50000000E+00  6.50000000E+00  7.12500000E-01
      7.00000000E+00  6.50000000E+00  7.02500000E-01
      7.50000000E+00  6.50000000E+00  6.92500000E-01
      8.00000000E+00  6.50000000E+00  6.82500000E-01
      8.50000000E+00  6.50000000E+00  6.72500000E-01
      9.00000000E+00  6.50000000E+00  6.62500000E-01
      9.50000000E+00  6.50000000E+00  6.52500000E-01
      1.00000000E+01  6.50000000E+00  6.51666667E-01
      0.00000000E+00  6.00000000E+00  8.08333333E-01
      5.00000000E-01  6.00000000E+00  8.07500000E-01
      1.00000000E+00  6.00000000E+00  7.97500000E-01
      1.50000000E+00  6.00000000E+00  7.87500000E-01
      2.00000000E+00  6.00000000E+00  7.77500000E-01
      2.50000000E+00  6.00000000E+00  7.67500000E-01
      3.00000000E+00  6.00000000E+00  7.57500000E-01
      3.50000000E+00  6.00000000E+00  7.47500000E-01
      4.00000000E+00  6.00000000E+00  7.37500000E-01
      4.50000000E+00  6.00000000E+00  7.27500000E-01
      5.00000000E+00  6.00000000E+00  7.17500000E-01
      5.50000000E+00  6.00000000E+00  7.07500000E-01
      6.00000000E+00  6.00000000E+00  6.97500000E-01
      6.50000000E+00  6.00000000E+00  6.87500000E-01
      7.00000000E+00  6.00000000E+00  6.77500000E-01
      7.50000000E+00  6.00000000E+00  6.67500000E-01
      8.00000000E+00  6.00000000E+00  6.57500000E-01
[...]
POINT_DATA     7056
SCALARS pressure float
LOOKUP_TABLE default
  -5.3320505982065267E-002
  -5.2016952504587793E-002
  -5.1241795491779256E-002
  -5.0737861313982349E-002
  -5.0328482773068922E-002
  -4.9988986483565978E-002
  -4.9698062627431830E-002
  -4.9443641483027913E-002
  -4.9210922035000805E-002
  -4.8990852653129011E-002
  -4.8770937642595658E-002
  -4.8538608010125592E-002
  -4.8279243566014492E-002
  -4.7970838741277978E-002
  -4.7589128484941970E-002
  -4.7097277338898347E-002
  -4.6447980260796884E-002
  -4.5558248922061596E-002
  -4.4282529943115316E-002
  -4.1647738294354322E-002
  -4.0467027058656298E-002
  -5.0551992649736997E-002
  -5.0049079290526620E-002
  -4.8716488566169787E-002
  -4.8070168928424833E-002
  -4.7524062176939545E-002
  -4.7066870692881790E-002
  -4.6675326949560628E-002
  -4.6334309417164231E-002
  -4.6027713054128290E-002
  -4.5743547997426900E-002
  -4.5466265470422408E-002
  -4.5181448012548954E-002
  -4.4871764476745291E-002
  -4.4515693189595043E-002
  -4.4086800070822427E-002
  -4.3546648052883594E-002
  -4.2834535711325609E-002
  -4.1843843125876683E-002
  -4.0367981924234013E-002
  -3.7460665227230940E-002
  -3.7513303082959908E-002
  -4.7456609911440795E-002
  -4.6831599942285286E-002
  -4.4689682320649467E-002
  -4.3601416270627087E-002
  -4.2771236770294638E-002
  -4.2115589906571611E-002
  -4.1576165902961856E-002
  -4.1116285194858646E-002
  -4.0708862116673211E-002
  -4.0330708967065511E-002
  -3.9961179237327588E-002
  -3.9578923082215403E-002
  -3.9160248940915292E-002
  -3.8675500844253030E-002
  -3.8086099967599846E-002
  -3.7333149412108628E-002
  -3.6315566193088969E-002
  -3.4812313186890750E-002
  -3.2123942063490583E-002
  -2.7527251610574375E-002
  -2.7557784803853319E-002
  -4.4668801119626907E-002
  -4.4279730999355234E-002
  -4.1821718341686118E-002
  -4.0505468747923809E-002
  -3.9492693609374165E-002
  -3.8678877511091211E-002
  -3.7997341838547243E-002
  -3.7405805130809697E-002
  -3.6872045224473141E-002
  -3.6367466051600857E-002
  -3.5863053834028553E-002
  -3.5325306622759602E-002
  -3.4707919542394036E-002
  -3.3939399792296585E-002
  -3.2895577878603574E-002
  -3.1544595770635973E-002
  -2.9815242058964044E-002
  -2.7515873890900634E-002
  -2.4304070561133644E-002
  -1.9686838772584751E-002
  -1.9852192739265615E-002
  -4.2375024526558246E-002
  -4.2134535584687341E-002
  -3.9437565735285125E-002
  -3.7882256536883110E-002
  -3.6652627876730161E-002
  -3.5622843565243881E-002
  -3.4710886461810926E-002
  -3.3846545387042119E-002
  -3.2982607162234980E-002
  -3.2143138895362106E-002
  -3.1333079072573516E-002
  -3.0508048657176642E-002
  -2.9619303989802923E-002
  -2.8611155254906168E-002
  -2.7414918609622359E-002
  -2.5940754837069317E-002
  -2.4035462308258988E-002
  -2.1475439291620664E-002
  -1.8091040238793970E-002
  -1.2259647583749976E-002
  -1.2409948162995328E-002
  -4.0446801810233642E-002
  -4.0283397308453914E-002
  -3.7347628599531321E-002
  -3.5486333606586436E-002
  -3.3860650170884132E-002
  -3.2300169971831688E-002
  -3.0977448099112133E-002
  -2.9861195399371834E-002
  -2.8882489335122601E-002
  -2.7986553890058840E-002
  -2.7123209777658194E-002
  -2.6243147400797254E-002
  -2.5294881667200866E-002
  -2.4218868155759417E-002
  -2.2929003833046521E-002
  -2.1303582123345915E-002
  -1.9213927699026682E-002
  -1.6034336344476253E-002
  -1.1295454311344447E-002
  -6.0167619294501625E-003
  -6.2785608923259101E-003
  -3.8753709560634494E-002
  -3.8623149099227753E-002
  -3.5387207083934648E-002
  -3.2921881259786408E-002
  -3.0743929887812830E-002
  -2.9035056848886420E-002
  -2.7653295620272276E-002
  -2.6488768681759412E-002
  -2.5464420356217543E-002
  -2.4520886746501484E-002
  -2.3605922601923499E-002
  -2.2667679942235997E-002
  -2.1638871866135997E-002
  -2.0450619048037126E-002
  -1.9039259494242466E-002
  -1.7092163764588469E-002
  -1.4197283638002160E-002
  -1.0314658012254863E-002
  -5.0670965129216011E-003
   6.6069559014245960E-006
   6.2414611753429998E-006
  -3.7195093432767119E-002
  -3.7072434915623842E-002
  -3.3293095223048824E-002
  -3.0264850393394160E-002
  -2.7997976812706143E-002
  -2.6239312809378256E-002
  -2.4806970501666414E-002
  -2.3588783070988023E-002
  -2.2507273539987938E-002
  -2.1494933744500584E-002
  -2.0490327126189169E-002
  -1.9452466083273893E-002
  -1.8321911423054740E-002
  -1.6754848523219644E-002
  -1.4781262165855805E-002
  -1.2413809563061172E-002
  -9.5174721535309856E-003
  -5.9090757559888997E-003
   6.6595063717825804E-006
   1.8018343154269227E-005
   2.3663870503839114E-005
  -3.5652419461122464E-002
  -3.5532292941578641E-002
  -3.1019371621005713E-002
  -2.7881767156136907E-002
  -2.5562236243569392E-002
  -2.3745497207551404E-002
  -2.2247073647620061E-002
  -2.0944620907058252E-002
  -1.9758309083858765E-002
  -1.8643789604591114E-002
  -1.7410870814655987E-002
  -1.5923876264194628E-002
  -1.4332221054556248E-002
  -1.2576170708839537E-002
  -1.0600021570048935E-002
  -8.2535638146026841E-003
  -5.2720079484460409E-003
   2.3208380864441775E-006
   1.6870400699676831E-005
   3.1360544248585386E-005
   3.1986875661490951E-005
  -3.3906282845397651E-002
  -3.3783863182228688E-002
  -2.8877978875827083E-002
  -2.5669208715734349E-002
  -2.3286231133846078E-002
  -2.1381604610486736E-002
  -1.9764032045827766E-002
  -1.8340087460634581E-002
  -1.6764648261601869E-002
  -1.5167390100652121E-002
  -1.3620922987100900E-002
  -1.2087067071421790E-002
  -1.0508275627340658E-002
  -8.7815758049015029E-003
  -6.8777484682038328E-003
  -4.3831127329009333E-003
   1.6901333411079686E-006
   9.6757126670036963E-006
   2.6928046306812182E-005
   4.0189914858520785E-005
   3.9107018080793797E-005
  -3.1779540208523596E-002
  -3.1711046884914794E-002
  -2.6769851599232671E-002
  -2.3496638889933714E-002
  -2.1007384036552553E-002
  -1.8963188564898908E-002
  -1.6989555384532909E-002
  -1.4973795343829780E-002
  -1.3165998568207087E-002
  -1.1544265671482480E-002
  -1.0023546231014766E-002
  -8.5029920906592883E-003
  -6.9575394294950320E-003
  -5.1703920094924895E-003
  -3.2914849480789026E-003
   2.1149132936422459E-006
   8.3515593023959927E-006
   1.8276412749404363E-005
   3.5594290460558246E-005
   4.7946349802410573E-005
   4.6253699064696781E-005
  -2.9581277881625866E-002
  -2.9571001483805995E-002
  -2.4594360704366252E-002
  -2.1204467669674740E-002
  -1.8565965853435316E-002
  -1.5916474658713112E-002
  -1.3482710647857428E-002
  -1.1418737692536967E-002
  -9.6253163674328446E-003
  -8.0381870905491901E-003
  -6.5797950240179060E-003
  -4.9522145330969840E-003
  -3.3107080078221746E-003
   2.3391897559861397E-007
   3.9064883339319240E-006
   9.0163030546375099E-006
   1.6842418309599052E-005
   2.6376624950602562E-005
   4.3185297077856849E-005
   5.5751048175170818E-005
   5.3906612989368102E-005
  -2.7205679134392594E-002
  -2.7243740136849329E-002
  -2.2180564829622360E-002
  -1.8641433689355627E-002
  -1.5259160804565622E-002
  -1.2294249137465286E-002
  -9.8502298276567559E-003
  -7.8051236209345709E-003
  -6.0535884514279674E-003
  -4.4692781044543715E-003
  -2.9496346829301781E-003
   1.2025790517334980E-006
   4.2489035606456834E-006
   7.3415371248128089E-006
   1.2017273268458902E-005
   1.8315434328651535E-005
   2.4918877063560712E-005
   3.3979231348478922E-005
   5.0901183089317984E-005
   6.4135890478152650E-005
   6.2512356522184781E-005
  -2.4489647889120079E-002
  -2.4534286503040778E-002
  -1.9348112611361410E-002
  -1.5073339500507078E-002
  -1.1357629436799519E-002
  -8.4259020743286880E-003
  -6.0066961490319298E-003
  -3.9643866846545842E-003
  -1.3415361044595620E-003
   2.7397562395953017E-006
   5.7663751671346695E-006
   8.8431817394974424E-006
   1.3384891179742179E-005
   1.7590631334367586E-005
   2.1818990709476862E-005
   2.6749997918774186E-005
   3.3137714914262228E-005
   4.2235004552369493E-005
   5.9360775317618281E-005
   7.3639540076970156E-005
   7.2513259079523340E-005
  -2.1192951128663477E-002
  -2.1190787118829709E-002
  -1.5444152290653154E-002
  -1.0728523786117279E-002
  -6.9446228771240341E-003
  -4.1758525306764991E-003
   1.6781752276842873E-006
   5.5160114244120469E-006
   8.3916774954727340E-006
   1.2096585945076776E-005
   1.7132094696544264E-005
   2.0594310473068075E-005
   2.3881710343086673E-005
   2.7353483358127883E-005
   3.1348029347580232E-005
   3.6218527847955779E-005
   4.2638216961757771E-005
   5.1876482869315831E-005
   6.9238368978264694E-005
   8.4869849914736696E-005
   8.4457805922801932E-005
  -1.6750931012840500E-002
  -1.6761827910841350E-002
  -1.0128871030757615E-002
  -5.7241768492829635E-003
   1.9931261407454529E-006
   7.2107636806965737E-006
   1.2242123613357739E-005
   1.8261112012272471E-005
   2.2835813838280639E-005
   2.6405551119527363E-005
   2.9506075017871884E-005
   3.2509608023537744E-005
   3.5574899227544628E-005
   3.8958356210535788E-005
   4.2951737786880827E-005
   4.7888891099836850E-005
   5.4398341069334427E-005
   6.3794881114495215E-005
   8.1411868893781412E-005
   9.8655654571850563E-005
   9.9083730138149647E-005
  -1.0371338118323078E-002
  -1.0075302397431365E-002
  -2.1896464237796437E-003
   6.7841783900979407E-006
   1.5121107102097129E-005
   2.3465905174120567E-005
   2.9952718287429726E-005
   3.4635000572469700E-005
   3.8404693918501192E-005
   4.1686597592831509E-005
   4.4664951094913226E-005
   4.7613789284804140E-005
   5.0700719596057003E-005
   5.4119030513850752E-005
   5.8163039555143915E-005
   6.3197221022847050E-005
   6.9830573846131204E-005
   7.9389377013354003E-005
   9.7264253747255584E-005
   1.1629545442791289E-004
   1.1752298914659451E-004
  -3.2014222885265562E-003
   1.8672146772162971E-006
   1.4149644275577590E-005
   2.6554293126816047E-005
   3.8672674986873779E-005
   4.6117184505977763E-005
   5.1592073991999075E-005
   5.5992872193209022E-005
   5.9678355407630606E-005
   6.2968406607113794E-005
   6.6013850880769671E-005
   6.9011301282615129E-005
   7.2170343823206188E-005
   7.5681472380627693E-005
   7.9818394477868381E-005
   8.4968644947158142E-005
   9.1747574984540612E-005
   1.0147867495832632E-004
   1.1960525372508762E-004
   1.4032960804922376E-004
   1.4186642175490901E-004
   2.7453858440968971E-005
   2.8749615863849344E-005
   4.8408652941447900E-005
   6.6142087041863454E-005
   7.5968898442985402E-005
   8.3013404546923494E-005
   8.8460099669030397E-005
   9.2933648643924881E-005
   9.6737130473559588E-005
   1.0012553117624984E-004
   1.0329611249941017E-004
   1.0641305143095297E-004
   1.0968289976905798E-004
   1.1332084942146720E-004
   1.1759202019766762E-004
   1.2288819120556219E-004
   1.2983800626527558E-004
   1.3975549456449817E-004
   1.5807888977460764E-004
   1.7898023862438455E-004
   1.7810383097526639E-004
   1.2464798102420434E-004
   1.1728636349084806E-004
   1.4945953729316000E-004
   1.7754827360929985E-004
   1.9777287075615514E-004
   2.1562215896091315E-004
   2.3243409756854949E-004
   2.4880587469249611E-004
   2.6510759077507035E-004
   2.8158862617791062E-004
   2.9847315006688503E-004
   3.1596837318313611E-004
   3.3431672293074199E-004
   3.5382779339116800E-004
   3.7490669318792041E-004
   3.9815058977181049E-004
   4.2453677203926118E-004
   4.5599820565289748E-004
   4.9956879566777292E-004
   5.4876505612391486E-004
   4.4745468284357386E-004
   1.6567026744249071E-004
   1.7610980274795158E-004
   2.1321099523909128E-004
   2.5542985445633798E-004
   2.8655093581210836E-004
   3.1518932480642444E-004
   3.4310079298760694E-004
   3.7104346236856433E-004
   3.9944064629358612E-004
   4.2858281163775722E-004
   4.5870762253192487E-004
   4.9005191451038607E-004
   5.2288784203756672E-004
   5.5757392687197306E-004
   5.9460491550330575E-004
   6.3470368811644764E-004
   6.7902942606053879E-004
   7.2974489968714157E-004
   7.9342391527812838E-004
   8.7057965279995462E-004
   9.2081309300101047E-004
  -4.7701428958502969E-002
  -4.6508724406784739E-002
  -4.5725201492182704E-002
  -4.5217548933850098E-002
  -4.4805399854650194E-002
  -4.4463733706833361E-002
  -4.4171052235585546E-002
  -4.3915080828711005E-002
  -4.3680880791731713E-002
  -4.3459229936940263E-002
  -4.3237522938616664E-002
  -4.3002968986928097E-002
  -4.2740643892380532E-002
  -4.2427605841299891E-002
  -4.2038282328421384E-002
  -4.1532143112245914E-002
  -4.0858298331498982E-002
  -3.9936355762558842E-002
  -3.8615801274388781E-002
  -3.5930421783941527E-002
  -3.4860751866688980E-002
  -4.5039995220453717E-002
  -4.4759958072985120E-002
  -4.3416068453679686E-002
  -4.2765224058372048E-002
  -4.2213387569298377E-002
  -4.1748828450398331E-002
  -4.1347939794083237E-002
  -4.0995802304709103E-002
  -4.0676277691738073E-002
  -4.0377465663183384E-002
  -4.0084613310869467E-002
  -3.9783936952967350E-002
  -3.9457349643647228E-002
  -3.9082380395865361E-002
  -3.8631473744472421E-002
  -3.8064782095385566E-002
  -3.7319510886067331E-002
  -3.6284549837729933E-002
  -3.4746269400049629E-002
  -3.1782598325415870E-002
  -3.1941635261080695E-002
  -4.1939572942271929E-002
  -4.1521953700924367E-002
  -3.9334350419259770E-002
  -3.8194581329552592E-002
  -3.7328293430953563E-002
  -3.6644928197711021E-002
  -3.6083094528163162E-002
  -3.5604428148975270E-002
  -3.5180679645936838E-002
  -3.4787770418930539E-002
  -3.4404229105254626E-002
  -3.4007868488237634E-002
  -3.3574087023726842E-002
  -3.3072211599166026E-002
  -3.2462941817371638E-002
  -3.1687531079116399E-002
  -3.0646283495648175E-002
  -2.9127796883406117E-002
  -2.6420693425404422E-002
  -2.1749921241719664E-002
  -2.1845014236455240E-002
  -3.9092381331060813E-002
  -3.8873099259537046E-002
  -3.6341531734093588E-002
  -3.4976558072785810E-002
  -3.3931278857131104E-002
  -3.3093324565207007E-002
  -3.2392909759405619E-002
  -3.1785838158855370E-002
  -3.1238973762926031E-002
  -3.0723667538597139E-002
  -3.0210907364553483E-002
  -2.9667481754295576E-002
  -2.9048654298895232E-002
  -2.8286707022061795E-002
  -2.7242835870841017E-002
  -2.5850351708004086E-002
  -2.4072874246761695E-002
  -2.1721633497274580E-002
  -1.8450991470849023E-002
  -1.3784365523439533E-002
  -1.3973965872772165E-002
  -3.6730726206699954E-002
  -3.6634369065220072E-002
  -3.3873279158448226E-002
  -3.2276543332010854E-002
  -3.1022240047902577E-002
  -2.9978536364978933E-002
  -2.9064240956742458E-002
  -2.8208990037273889E-002
  -2.7351419424077233E-002
  -2.6485711772930715E-002
  -2.5649621365378194E-002
  -2.4799665816208179E-002
  -2.3885711852502725E-002
  -2.2850779625034210E-002
  -2.1624759152813963E-002
  -2.0117839953015443E-002
  -1.8178391709458067E-002
  -1.5581947924620322E-002
  -1.2166304179358017E-002
  -6.3193706686517255E-003
  -6.4814627376170624E-003
  -3.4753395651895010E-002
  -3.4714861047764174E-002
  -3.1726790761726950E-002
  -2.9840230740874888E-002
  -2.8224312781549965E-002
  -2.6654589968365734E-002
  -2.5292468314588736E-002
  -2.4143347421686369E-002
  -2.3136706711465768E-002
  -2.2216188904454207E-002
  -2.1331060159698156E-002
  -2.0430610169661325E-002
  -1.9462274032798335E-002
  -1.8365846281887019E-002
  -1.7055448683726993E-002
  -1.5407651171531880E-002
  -1.3292959434887529E-002
  -1.0105303573719649E-002
  -5.3413316847948627E-003
  -3.7809676132773891E-005
  -3.0022562481097617E-004
  -3.3023934979630555E-002
  -3.3002475647996202E-002
  -2.9735217635514670E-002
  -2.7289865162671345E-002
  -2.5052688353461118E-002
  -2.3295256058267266E-002
  -2.1876918449792223E-002
  -2.0684516533381637E-002
  -1.9637763770399004E-002
  -1.8675369432006865E-002
  -1.7743856233973222E-002
  -1.6790660154443131E-002
  -1.5747827592109021E-002
  -1.4544485742849651E-002
  -1.3117238341841331E-002
  -1.1170286969889524E-002
  -8.2560629669460091E-003
  -4.3537402669519363E-003
   8.6896909879757833E-004
   5.9768093162876979E-003
   5.9626086456515707E-003
  -3.1439352920279780E-002
  -3.1411649791819957E-002
  -2.7655073674644193E-002
  -2.4555547253873208E-002
  -2.2228998514063732E-002
  -2.0429093690121441E-002
  -1.8967429413524910E-002
  -1.7727294344495579E-002
  -1.6628575419118326E-002
  -1.5602709844224153E-002
  -1.4585855943358804E-002
  -1.3535760170388997E-002
  -1.2395764906690513E-002
  -1.0831310160479989E-002
  -8.8431924979287379E-003
  -6.4605502044871753E-003
  -3.5468911611240589E-003
   7.1302176165971136E-005
   5.9296668113588483E-003
   6.0773490025929694E-003
   6.0541234352501474E-003
  -2.9882929371692270E-002
  -2.9848144364615491E-002
  -2.5320283970859316E-002
  -2.2106333354890075E-002
  -1.9735950405869430E-002
  -1.7885842990817392E-002
  -1.6364396264655870E-002
  -1.5045478560320983E-002
  -1.3845714143651766E-002
  -1.2720365214953079E-002
  -1.1493983709542946E-002
  -9.9953631485719310E-003
  -8.3920508067027357E-003
  -6.6243157799590838E-003
  -4.6369561410395006E-003
  -2.2786947265394002E-003
   7.0992042118454422E-004
   5.9205015982583924E-003
   6.0188897549758990E-003
   6.1312991013863331E-003
   6.1004537897079011E-003
  -2.8146019682966060E-002
  -2.8110728130205976E-002
  -2.3119814518346379E-002
  -1.9841984591098750E-002
  -1.7417368242586148E-002
  -1.5486711148688838E-002
  -1.3851177721560434E-002
  -1.2414942558362894E-002
  -1.0842888067728191E-002
  -9.2339368937210415E-003
  -7.6763905383795883E-003
  -6.1323011443494713E-003
  -4.5451077440791070E-003
  -2.8110228937162961E-003
  -8.9925750387015067E-004
   1.5995189625102851E-003
   5.9293581022031756E-003
   6.0017224129118359E-003
   6.0631281235286986E-003
   6.1694465438134590E-003
   6.1355876308918679E-003
  -2.5985428460676238E-002
  -2.5983059085659926E-002
  -2.0958562884872863E-002
  -1.7628282984228555E-002
  -1.5106192816508627E-002
  -1.3040830141605562E-002
  -1.1068206039023826E-002
  -9.0387315825759644E-003
  -7.2185638420977447E-003
  -5.5867567146148430E-003
  -4.0584537113824669E-003
  -2.5314537243938963E-003
  -9.7923738575079631E-004
   8.1156190872471768E-004
   2.6917437602375647E-003
   5.9457490224542461E-003
   6.0010925400039257E-003
   6.0412751976542372E-003
   6.0974716833208037E-003
   6.2010903258202434E-003
   6.1659943410325609E-003
  -2.3742363350720431E-002
  -2.3782455871367410E-002
  -1.8737642540925512E-002
  -1.5302767940169604E-002
  -1.2638276769665335E-002
  -9.9852785994780820E-003
  -7.5363019183130641E-003
  -5.4603209452823579E-003
  -3.6588853287029413E-003
  -2.0654105404683317E-003
  -6.0068428438534349E-004
   1.0298457715447584E-003
   2.6724843385108870E-003
   5.9343964478269567E-003
   5.9743582278075427E-003
   6.0086182977490245E-003
   6.0384386476320844E-003
   6.0735283471975319E-003
   6.1271590389176097E-003
   6.2303171269847647E-003
   6.1947154027345418E-003
  -2.1326938124975835E-002
  -2.1401811337615449E-002
  -1.6285063137594362E-002
  -1.2710763935350922E-002
  -9.3206015370238971E-003
  -6.3395330481405701E-003
  -3.8838043117796570E-003
  -1.8311039953019558E-003
  -7.4376278515418364E-005
   1.5125008496381790E-003
   3.0334846721522127E-003
   5.9410937283988566E-003
   5.9750351111217213E-003
   6.0026292797426785E-003
   6.0226967236389787E-003
   6.0452865600488523E-003
   6.0703773553884227E-003
   6.1031744785623593E-003
   6.1560196465237074E-003
   6.2596302726584006E-003
   6.2240145883303765E-003
  -1.8575326584961836E-002
  -1.8645323718378404E-002
  -1.3417786838989105E-002
  -9.1290469478631803E-003
  -5.3958328914630168E-003
  -2.4511413105951993E-003
  -2.4984383719461818E-005
   2.0163790327170266E-003
   4.6103048525965220E-003
   5.9577477691996018E-003
   5.9849176762031319E-003
   6.0094530169459964E-003
   6.0265042478050510E-003
   6.0429158159253033E-003
   6.0595164715349656E-003
   6.0784468453047302E-003
   6.1019508762713472E-003
   6.1339737581588396E-003
   6.1866007867707150E-003
   6.2912705066509094E-003
   6.2559714298585150E-003
  -1.5249159829552493E-002
  -1.5260474201977630E-002
  -9.4960477802683678E-003