# vtk DataFile Version 2.0
3D Unstructured Grid of Linear Triangles
ASCII
DATASET UNSTRUCTURED_GRID
FIELD FieldData  1
TIME 1 1 double
           0.00000
POINTS      945 float
      5.00000000E-01  1.00000000E+01  1.00000000E+00
      1.00000000E+00  1.00000000E+01  1.00000004E+00
      1.50000000E+00  1.00000000E+01  1.00000011E+00
      2.00000000E+00  1.00000000E+01  1.00000017E+00
      2.50000000E+00  1.00000000E+01  1.00000024E+00
      3.00000000E+00  1.00000000E+01  1.00000030E+00
      3.50000000E+00  1.00000000E+01  1.00000037E+00
      4.00000000E+00  1.00000000E+01  1.00000043E+00
      4.50000000E+00  1.00000000E+01  1.00000050E+00
      5.00000000E+00  1.00000000E+01  1.00000056E+00
      5.50000000E+00  1.00000000E+01  1.00000063E+00
      6.00000000E+00  1.00000000E+01  1.00000069E+00
      6.50000000E+00  1.00000000E+01  1.00000076E+00
      7.00000000E+00  1.00000000E+01  1.00000082E+00
      7.50000000E+00  1.00000000E+01  1.00000084E+00
      0.00000000E+00  9.50000000E+00  1.00000000E+00
      5.00000000E-01  9.50000000E+00  1.00000000E+00
      1.00000000E+00  9.50000000E+00  1.00000003E+00
      1.50000000E+00  9.50000000E+00  1.00000010E+00
      2.00000000E+00  9.50000000E+00  1.00000016E+00
      2.50000000E+00  9.50000000E+00  1.00000023E+00
      3.00000000E+00  9.50000000E+00  1.00000029E+00
      3.50000000E+00  9.50000000E+00  1.00000036E+00
      4.00000000E+00  9.50000000E+00  1.00000042E+00
      4.50000000E+00  9.50000000E+00  1.00000049E+00
      5.00000000E+00  9.50000000E+00  1.00000055E+00
      5.50000000E+00  9.50000000E+00  1.00000062E+00
      6.00000000E+00  9.50000000E+00  1.00000068E+00
      6.50000000E+00  9.50000000E+00  1.00000075E+00
      7.00000000E+00  9.50000000E+00  1.00000081E+00
      7.50000000E+00  9.50000000E+00  1.00000084E+00
      0.00000000E+00  9.00000000E+00  1.00000004E+00
      5.00000000E-01  9.00000000E+00  1.00000003E+00
      1.00000000E+00  9.00000000E+00  1.00000004E+00
      1.50000000E+00  9.00000000E+00  1.00000010E+00
      2.00000000E+00  9.00000000E+00  1.00000016E+00
      2.50000000E+00  9.00000000E+00  1.00000023E+00
      3.00000000E+00  9.00000000E+00  1.00000029E+00
      3.50000000E+00  9.00000000E+00  1.00000036E+00
      4.00000000E+00  9.00000000E+00  1.00000042E+00
      4.50000000E+00  9.00000000E+00  1.00000049E+00
      5.00000000E+00  9.00000000E+00  1.00000055E+00
      5.50000000E+00  9.00000000E+00  1.00000062E+00
      6.00000000E+00  9.00000000E+00  1.00000068E+00
      6.50000000E+00  9.00000000E+00  1.00000075E+00
      7.00000000E+00  9.00000000E+00  1.00000081E+00
      7.50000000E+00  9.00000000E+00  1.00000084E+00
      0.00000000E+00  8.50000000E+00  1.00000007E+00
      5.00000000E-01  8.50000000E+00  1.00000007E+00
      1.00000000E+00  8.50000000E+00  1.00000007E+00
      1.50000000E+00  8.50000000E+00  1.00000009E+00
      2.00000000E+00  8.50000000E+00  1.00000015E+00
      2.50000000E+00  8.50000000E+00  1.00000022E+00
      3.00000000E+00  8.50000000E+00  1.00000028E+00
      3.50000000E+00  8.50000000E+00  1.00000035E+00
      4.00000000E+00  8.50000000E+00  1.00000041E+00
      4.50000000E+00  8.50000000E+00  1.00000048E+00
      5.00000000E+00  8.50000000E+00  1.00000054E+00
      5.50000000E+00  8.50000000E+00  1.00000061E+00
      6.00000000E+00  8.50000000E+00  1.00000067E+00
      6.50000000E+00  8.50000000E+00  1.00000074E+00
      7.00000000E+00  8.50000000E+00  1.00000080E+00
      7.50000000E+00  8.50000000E+00  1.00000084E+00
      5.00000000E-01  1.00000000E+01  9.82000000E-01
      1.00000000E+00  1.00000000E+01  9.82000043E-01
      1.50000000E+00  1.00000000E+01  9.82000108E-01
      2.00000000E+00  1.00000000E+01  9.82000173E-01
      2.50000000E+00  1.00000000E+01  9.82000238E-01
      3.00000000E+00  1.00000000E+01  9.82000303E-01
      3.50000000E+00  1.00000000E+01  9.82000368E-01
      4.00000000E+00  1.00000000E+01  9.82000433E-01
      4.50000000E+00  1.00000000E+01  9.82000498E-01
      5.00000000E+00  1.00000000E+01  9.82000563E-01
      5.50000000E+00  1.00000000E+01  9.82000628E-01
      6.00000000E+00  1.00000000E+01  9.82000693E-01
      6.50000000E+00  1.00000000E+01  9.82000758E-01
      7.00000000E+00  1.00000000E+01  9.82000823E-01
      7.50000000E+00  1.00000000E+01  9.82000845E-01
      0.00000000E+00  9.50000000E+00  9.82000000E-01
      5.00000000E-01  9.50000000E+00  9.82000000E-01
      1.00000000E+00  9.50000000E+00  9.82000033E-01
      1.50000000E+00  9.50000000E+00  9.82000098E-01
      2.00000000E+00  9.50000000E+00  9.82000163E-01
      2.50000000E+00  9.50000000E+00  9.82000227E-01
      3.00000000E+00  9.50000000E+00  9.82000292E-01
      3.50000000E+00  9.50000000E+00  9.82000358E-01
      4.00000000E+00  9.50000000E+00  9.82000423E-01
      4.50000000E+00  9.50000000E+00  9.82000488E-01
      5.00000000E+00  9.50000000E+00  9.82000553E-01
      5.50000000E+00  9.50000000E+00  9.82000618E-01
      6.00000000E+00  9.50000000E+00  9.82000683E-01
      6.50000000E+00  9.50000000E+00  9.82000747E-01
      7.00000000E+00  9.50000000E+00  9.82000812E-01
      7.50000000E+00  9.50000000E+00  9.82000845E-01
      0.00000000E+00  9.00000000E+00  9.82000043E-01
      5.00000000E-01  9.00000000E+00  9.82000033E-01
      1.00000000E+00  9.00000000E+00  9.82000043E-01
      1.50000000E+00  9.00000000E+00  9.82000098E-01
      2.00000000E+00  9.00000000E+00  9.82000163E-01
      2.50000000E+00  9.00000000E+00  9.82000227E-01
      3.00000000E+00  9.00000000E+00  9.82000292E-01
      3.50000000E+00  9.00000000E+00  9.82000358E-01
      4.00000000E+00  9.00000000E+00  9.82000423E-01
      4.50000000E+00  9.00000000E+00  9.82000488E-01
      5.00000000E+00  9.00000000E+00  9.82000553E-01
      5.50000000E+00  9.00000000E+00  9.82000618E-01
      6.00000000E+00  9.00000000E+00  9.82000683E-01
      6.50000000E+00  9.00000000E+00  9.82000747E-01
      7.00000000E+00  9.00000000E+00  9.82000812E-01
      7.50000000E+00  9.00000000E+00  9.82000845E-01
      0.00000000E+00  8.50000000E+00  9.82000065E-01
      5.00000000E-01  8.50000000E+00  9.82000065E-01
      1.00000000E+00  8.50000000E+00  9.82000065E-01
      1.50000000E+00  8.50000000E+00  9.82000087E-01
      2.00000000E+00  8.50000000E+00  9.82000152E-01
      2.50000000E+00  8.50000000E+00  9.82000217E-01
      3.00000000E+00  8.50000000E+00  9.82000282E-01
      3.50000000E+00  8.50000000E+00  9.82000347E-01
      4.00000000E+00  8.50000000E+00  9.82000412E-01
      4.50000000E+00  8.50000000E+00  9.82000477E-01
      5.00000000E+00  8.50000000E+00  9.82000542E-01
      5.50000000E+00  8.50000000E+00  9.82000607E-01
      6.00000000E+00  8.50000000E+00  9.82000672E-01
      6.50000000E+00  8.50000000E+00  9.82000737E-01
      7.00000000E+00  8.50000000E+00  9.82000802E-01
      7.50000000E+00  8.50000000E+00  9.82000845E-01
      5.00000000E-01  1.00000000E+01  9.64000000E-01
      1.00000000E+00  1.00000000E+01  9.64000043E-01
      1.50000000E+00  1.00000000E+01  9.64000108E-01
      2.00000000E+00  1.00000000E+01  9.64000173E-01
      2.50000000E+00  1.00000000E+01  9.64000238E-01
      3.00000000E+00  1.00000000E+01  9.64000303E-01
      3.50000000E+00  1.00000000E+01  9.64000368E-01
      4.00000000E+00  1.00000000E+01  9.64000433E-01
      4.50000000E+00  1.00000000E+01  9.64000498E-01
      5.00000000E+00  1.00000000E+01  9.64000563E-01
      5.50000000E+00  1.00000000E+01  9.64000628E-01
      6.00000000E+00  1.00000000E+01  9.64000693E-01
      6.50000000E+00  1.00000000E+01  9.64000758E-01
      7.00000000E+00  1.00000000E+01  9.64000823E-01
      7.50000000E+00  1.00000000E+01  9.64000845E-01
      0.00000000E+00  9.50000000E+00  9.64000000E-01
      5.00000000E-01  9.50000000E+00  9.64000000E-01
      1.00000000E+00  9.50000000E+00  9.64000032E-01
      1.50000000E+00  9.50000000E+00  9.64000098E-01
      2.00000000E+00  9.50000000E+00  9.64000163E-01
      2.50000000E+00  9.50000000E+00  9.64000227E-01
      3.00000000E+00  9.50000000E+00  9.64000292E-01
      3.50000000E+00  9.50000000E+00  9.64000358E-01
      4.00000000E+00  9.50000000E+00  9.64000423E-01
      4.50000000E+00  9.50000000E+00  9.64000488E-01
      5.00000000E+00  9.50000000E+00  9.64000553E-01
      5.50000000E+00  9.50000000E+00  9.64000618E-01
      6.00000000E+00  9.50000000E+00  9.64000683E-01
      6.50000000E+00  9.50000000E+00  9.64000747E-01
      7.00000000E+00  9.50000000E+00  9.64000812E-01
      7.50000000E+00  9.50000000E+00  9.64000845E-01
      0.00000000E+00  9.00000000E+00  9.64000043E-01
      5.00000000E-01  9.00000000E+00  9.64000032E-01
      1.00000000E+00  9.00000000E+00  9.64000043E-01
      1.50000000E+00  9.00000000E+00  9.64000098E-01
      2.00000000E+00  9.00000000E+00  9.64000163E-01
      2.50000000E+00  9.00000000E+00  9.64000227E-01
      3.00000000E+00  9.00000000E+00  9.64000292E-01
      3.50000000E+00  9.00000000E+00  9.64000358E-01
      4.00000000E+00  9.00000000E+00  9.64000423E-01
      4.50000000E+00  9.00000000E+00  9.64000488E-01
      5.00000000E+00  9.00000000E+00  9.64000553E-01
      5.50000000E+00  9.00000000E+00  9.64000618E-01
      6.00000000E+00  9.00000000E+00  9.64000683E-01
      6.50000000E+00  9.00000000E+00  9.64000747E-01
      7.00000000E+00  9.00000000E+00  9.64000812E-01
      7.50000000E+00  9.00000000E+00  9.64000845E-01
      0.00000000E+00  8.50000000E+00  9.64000065E-01
      5.00000000E-01  8.50000000E+00  9.64000065E-01
      1.00000000E+00  8.50000000E+00  9.64000065E-01
      1.50000000E+00  8.50000000E+00  9.64000087E-01
      2.00000000E+00  8.50000000E+00  9.64000152E-01
      2.50000000E+00  8.50000000E+00  9.64000217E-01
      3.00000000E+00  8.50000000E+00  9.64000282E-01
      3.50000000E+00  8.50000000E+00  9.64000347E-01
      4.00000000E+00  8.50000000E+00  9.64000412E-01
      4.50000000E+00  8.50000000E+00  9.64000477E-01
      5.00000000E+00  8.50000000E+00  9.64000542E-01
      5.50000000E+00  8.50000000E+00  9.64000607E-01
[...]
POINT_DATA      945
SCALARS pressure float
LOOKUP_TABLE default
   0.0000000000000000     
   0.0000000000000000     
   0.0000000000000000     
   0.0000000000000000     
   0.0000000000000000     
   0.0000000000000000     
   0.0000000000000000     
   0.0000000000000000     
   0.0000000000000000     
   0.0000000000000000     
   0.0000000000000000     
   0.0000000000000000     
   0.0000000000000000     
   0.0000000000000000     
   0.0000000000000000     
   0.0000000000000000     
   0.0000000000000000     
   0.0000000000000000     
   0.0000000000000000     
   0.0000000000000000     
   0.0000000000000000     
   0.0000000000000000     
   0.0000000000000000     
   0.0000000000000000     
   0.0000000000000000     
   0.0000000000000000     
   0.0000000000000000     
   0.0000000000000000     
   0.0000000000000000     
   0.0000000000000000     
   0.0000000000000000     
   0.0000000000000000     
   0.0000000000000000     
   0.0000000000000000     
   0.0000000000000000     
   0.0000000000000000     
   0.0000000000000000     
   0.0000000000000000     
   0.0000000000000000     
   0.0000000000000000     
   0.0000000000000000     
   0.0000000000000000     
   0.0000000000000000     
   0.0000000000000000     
   0.0000000000000000     
   0.0000000000000000     
   0.0000000000000000     
   0.0000000000000000     
   0.0000000000000000     
   0.0000000000000000     
   0.0000000000000000     
   0.0000000000000000     
   0.0000000000000000     
   0.0000000000000000     
   0.0000000000000000     
   0.0000000000000000     
   0.0000000000000000     
   0.0000000000000000     
   0.0000000000000000     
   0.0000000000000000     
   0.0000000000000000     
   0.0000000000000000     
   0.0000000000000000     
   1.8000000000000016E-002
   1.8000000000000016E-002
   1.8000000000000016E-002
   1.8000000000000016E-002
   1.8000000000000016E-002
   1.8000000000000016E-002
   1.8000000000000016E-002
   1.8000000000000016E-002
   1.8000000000000016E-002
   1.8000000000000016E-002
   1.8000000000000016E-002
   1.8000000000000016E-002
   1.8000000000000016E-002
   1.8000000000000016E-002
   1.8000000000000016E-002
   1.8000000000000016E-002
   1.8000000000000016E-002
   1.8000000000000016E-002
   1.8000000000000016E-002
   1.8000000000000016E-002
   1.8000000000000016E-002
   1.8000000000000016E-002
   1.8000000000000016E-002
   1.8000000000000016E-002
   1.8000000000000016E-002
   1.8000000000000016E-002
   1.8000000000000016E-002
   1.8000000000000016E-002
   1.8000000000000016E-002
   1.8000000000000016E-002
   1.8000000000000016E-002
   1.8000000000000016E-002
   1.8000000000000016E-002
   1.8000000000000016E-002
   1.8000000000000016E-002
   1.8000000000000016E-002
   1.8000000000000016E-002
   1.8000000000000016E-002
   1.8000000000000016E-002
   1.8000000000000016E-002
   1.8000000000000016E-002
   1.8000000000000016E-002
   1.8000000000000016E-002
   1.8000000000000016E-002
   1.8000000000000016E-002
   1.8000000000000016E-002
   1.8000000000000016E-002
   1.8000000000000016E-002
   1.8000000000000016E-002
   1.8000000000000016E-002
   1.8000000000000016E-002
   1.8000000000000016E-002
   1.8000000000000016E-002
   1.8000000000000016E-002
   1.8000000000000016E-002
   1.8000000000000016E-002
   1.8000000000000016E-002
   1.8000000000000016E-002
   1.8000000000000016E-002
   1.8000000000000016E-002
   1.8000000000000016E-002
   1.8000000000000016E-002
   1.8000000000000016E-002
   3.6000000000000032E-002
   3.6000000000000032E-002
   3.6000000000000032E-002
   3.6000000000000032E-002
   3.6000000000000032E-002
   3.6000000000000032E-002
   3.6000000000000032E-002
   3.6000000000000032E-002
   3.6000000000000032E-002
   3.6000000000000032E-002
   3.6000000000000032E-002
   3.6000000000000032E-002
   3.6000000000000032E-002
   3.6000000000000032E-002
   3.6000000000000032E-002
   3.6000000000000032E-002
   3.6000000000000032E-002
   3.6000000000000032E-002
   3.6000000000000032E-002
   3.6000000000000032E-002
   3.6000000000000032E-002
   3.6000000000000032E-002
   3.6000000000000032E-002
   3.6000000000000032E-002
   3.6000000000000032E-002
   3.6000000000000032E-002
   3.6000000000000032E-002
   3.6000000000000032E-002
   3.6000000000000032E-002
   3.6000000000000032E-002
   3.6000000000000032E-002
   3.6000000000000032E-002
   3.6000000000000032E-002
   3.6000000000000032E-002
   3.6000000000000032E-002
   3.6000000000000032E-002
   3.6000000000000032E-002
   3.6000000000000032E-002
   3.6000000000000032E-002
   3.6000000000000032E-002
   3.6000000000000032E-002
   3.6000000000000032E-002
   3.6000000000000032E-002
   3.6000000000000032E-002
   3.6000000000000032E-002
   3.6000000000000032E-002
   3.6000000000000032E-002
   3.6000000000000032E-002
   3.6000000000000032E-002
   3.6000000000000032E-002
   3.6000000000000032E-002
   3.6000000000000032E-002
   3.6000000000000032E-002
   3.6000000000000032E-002
   3.6000000000000032E-002
   3.6000000000000032E-002
   3.6000000000000032E-002
   3.6000000000000032E-002
   3.6000000000000032E-002
   3.6000000000000032E-002
   3.6000000000000032E-002
   3.6000000000000032E-002
   3.6000000000000032E-002
   6.0000000000000053E-002
   6.0000000000000053E-002
   6.0000000000000053E-002
   6.0000000000000053E-002
   6.0000000000000053E-002
   6.0000000000000053E-002
   6.0000000000000053E-002
   6.0000000000000053E-002
   6.0000000000000053E-002
   6.0000000000000053E-002
   6.0000000000000053E-002
   6.0000000000000053E-002
   6.0000000000000053E-002
   6.0000000000000053E-002
   6.0000000000000053E-002
   6.0000000000000053E-002
   6.0000000000000053E-002
   6.0000000000000053E-002
   6.0000000000000053E-002
   6.0000000000000053E-002
   6.0000000000000053E-002
   6.0000000000000053E-002
   6.0000000000000053E-002
   6.0000000000000053E-002
   6.0000000000000053E-002
   6.0000000000000053E-002
   6.0000000000000053E-002
   6.0000000000000053E-002
   6.0000000000000053E-002
   6.0000000000000053E-002
   6.0000000000000053E-002
   6.0000000000000053E-002
   6.0000000000000053E-002
   6.0000000000000053E-002
   6.0000000000000053E-002
   6.0000000000000053E-002
   6.0000000000000053E-002
   6.0000000000000053E-002
   6.0000000000000053E-002
   6.0000000000000053E-002
   6.0000000000000053E-002
   6.0000000000000053E-002
   6.0000000000000053E-002
   6.0000000000000053E-002
   6.0000000000000053E-002
   6.0000000000000053E-002
   6.0000000000000053E-002
   6.0000000000000053E-002
   6.0000000000000053E-002
   6.0000000000000053E-002
   6.0000000000000053E-002
   6.0000000000000053E-002
   6.0000000000000053E-002
   6.0000000000000053E-002
   6.0000000000000053E-002
   6.0000000000000053E-002
   6.0000000000000053E-002
   6.0000000000000053E-002
   6.0000000000000053E-002
   6.0000000000000053E-002
   6.0000000000000053E-002
   6.0000000000000053E-002
   6.0000000000000053E-002
   8.9999999999999969E-002
   8.9999999999999969E-002
   8.9999999999999969E-002
   8.9999999999999969E-002
   8.9999999999999969E-002
   8.9999999999999969E-002
   8.9999999999999969E-002
   8.9999999999999969E-002
   8.9999999999999969E-002
   8.9999999999999969E-002
   8.9999999999999969E-002
   8.9999999999999969E-002
   8.9999999999999969E-002
   8.9999999999999969E-002
   8.9999999999999969E-002
   8.9999999999999969E-002
   8.9999999999999969E-002
   8.9999999999999969E-002
   8.9999999999999969E-002
   8.9999999999999969E-002
   8.9999999999999969E-002
   8.9999999999999969E-002
   8.9999999999999969E-002
   8.9999999999999969E-002
   8.9999999999999969E-002
   8.9999999999999969E-002
   8.9999999999999969E-002
   8.9999999999999969E-002
   8.9999999999999969E-002
   8.9999999999999969E-002
   8.9999999999999969E-002
   8.9999999999999969E-002
   8.9999999999999969E-002
   8.9999999999999969E-002
   8.9999999999999969E-002
   8.9999999999999969E-002
   8.9999999999999969E-002
   8.9999999999999969E-002
   8.9999999999999969E-002
   8.9999999999999969E-002
   8.9999999999999969E-002
   8.9999999999999969E-002
   8.9999999999999969E-002
   8.9999999999999969E-002
   8.9999999999999969E-002
   8.9999999999999969E-002
   8.9999999999999969E-002
   8.9999999999999969E-002
   8.9999999999999969E-002
   8.9999999999999969E-002
   8.9999999999999969E-002
   8.9999999999999969E-002
   8.9999999999999969E-002
   8.9999999999999969E-002
   8.9999999999999969E-002
   8.9999999999999969E-002
   8.9999999999999969E-002
   8.9999999999999969E-002
   8.9999999999999969E-002
   8.9999999999999969E-002
   8.9999999999999969E-002
   8.9999999999999969E-002
   8.9999999999999969E-002
  0.12000000000000000     
  0.12000000000000000     
  0.12000000000000000     
  0.12000000000000000     
  0.12000000000000000     
  0.12000000000000000     
  0.12000000000000000     
  0.12000000000000000     
  0.12000000000000000     
  0.12000000000000000     
  0.12000000000000000     
  0.12000000000000000     
  0.12000000000000000     
  0.12000000000000000     
  0.12000000000000000     
  0.12000000000000000     
  0.12000000000000000     
  0.12000000000000000     
  0.12000000000000000     
  0.12000000000000000     
  0.12000000000000000     
  0.12000000000000000     
  0.12000000000000000     
  0.12000000000000000     
  0.12000000000000000     
  0.12000000000000000     
  0.12000000000000000     
  0.12000000000000000     
  0.12000000000000000     
  0.12000000000000000     
  0.12000000000000000     
  0.12000000000000000     
  0.12000000000000000     
  0.12000000000000000     
  0.12000000000000000     
  0.12000000000000000     
  0.12000000000000000     
  0.12000000000000000     
  0.12000000000000000     
  0.12000000000000000     
  0.12000000000000000     
  0.12000000000000000     
  0.12000000000000000     
  0.12000000000000000     
  0.12000000000000000     
  0.12000000000000000     
  0.12000000000000000     
  0.12000000000000000     
  0.12000000000000000     
  0.12000000000000000     
  0.12000000000000000     
  0.12000000000000000     
  0.12000000000000000     
  0.12000000000000000     
  0.12000000000000000     
  0.12000000000000000     
  0.12000000000000000     
  0.12000000000000000     
  0.12000000000000000     
  0.12000000000000000     
  0.12000000000000000     
  0.12000000000000000     
  0.12000000000000000     
  0.17999999999999994     
  0.17999999999999994     
  0.17999999999999994     
  0.17999999999999994     
  0.17999999999999994     
  0.17999999999999994     
  0.17999999999999994     
  0.17999999999999994     
  0.17999999999999994     
  0.17999999999999994     
  0.17999999999999994     
  0.17999999999999994     
  0.17999999999999994     
  0.17999999999999994     
  0.17999999999999994     
  0.17999999999999994     
  0.17999999999999994     
  0.17999999999999994     
  0.17999999999999994     
  0.17999999999999994     
  0.17999999999999994     
  0.17999999999999994     
  0.17999999999999994     
  0.17999999999999994     
  0.17999999999999994     
  0.17999999999999994     
  0.17999999999999994     
  0.17999999999999994     
  0.17999999999999994     
  0.17999999999999994     
  0.17999999999999994     
  0.17999999999999994     
  0.17999999999999994     
  0.17999999999999994     
  0.17999999999999994     
  0.17999999999999994     
  0.17999999999999994     
  0.17999999999999994     
  0.17999999999999994     
  0.17999999999999994     
  0.17999999999999994     
  0.17999999999999994     
  0.17999999999999994     
  0.17999999999999994     
  0.17999999999999994     
  0.17999999999999994     
  0.17999999999999994     
  0.17999999999999994     
  0.17999999999999994     
  0.17999999999999994     
  0.17999999999999994     
  0.17999999999999994     
  0.17999999999999994     
  0.17999999999999994     
  0.17999999999999994     
  0.17999999999999994     
  0.17999999999999994     
  0.17999999999999994     
  0.17999999999999994     
  0.17999999999999994     
  0.17999999999999994     
  0.17999999999999994     
  0.17999999999999994     
  0.23999999999999999     
  0.23999999999999999     
  0.23999999999999999     
  0.23999999999999999     
  0.23999999999999999     
  0.23999999999999999     
  0.23999999999999999     
  0.23999999999999999     
  0.23999999999999999     
  0.23999999999999999     
  0.23999999999999999     
  0.23999999999999999     
  0.23999999999999999     
  0.23999999999999999     
  0.23999999999999999     
  0.23999999999999999     
  0.23999999999999999     
  0.23999999999999999     
  0.23999999999999999     
  0.23999999999999999     
  0.23999999999999999     
  0.23999999999999999     
  0.23999999999999999     
  0.23999999999999999     
  0.23999999999999999     
  0.23999999999999999     
  0.23999999999999999     
  0.23999999999999999     
  0.23999999999999999     
  0.23999999999999999     
  0.23999999999999999     
  0.23999999999999999     
  0.23999999999999999     
  0.23999999999999999     
  0.23999999999999999     
  0.23999999999999999     
  0.23999999999999999     
  0.23999999999999999     
  0.23999999999999999     
  0.23999999999999999     
  0.23999999999999999     
  0.23999999999999999     
  0.23999999999999999     
  0.23999999999999999     
  0.23999999999999999     
  0.23999999999999999     
  0.23999999999999999     
  0.23999999999999999     
  0.23999999999999999     
  0.23999999999999999     
  0.23999999999999999     
  0.23999999999999999     
  0.23999999999999999     
  0.23999999999999999     
  0.23999999999999999     
  0.23999999999999999     
  0.23999999999999999     
  0.23999999999999999     
  0.23999999999999999     
  0.23999999999999999     
  0.23999999999999999     
  0.23999999999999999     
  0.23999999999999999     
  0.39000000000000001     
  0.39000000000000001     
  0.39000000000000001     
  0.39000000000000001     
  0.39000000000000001     
  0.39000000000000001     
  0.39000000000000001     
  0.39000000000000001     
  0.39000000000000001     
  0.39000000000000001     
  0.39000000000000001     
  0.39000000000000001     
  0.39000000000000001     
  0.39000000000000001     
  0.39000000000000001     
  0.39000000000000001     
  0.39000000000000001     
  0.39000000000000001     
  0.39000000000000001     
  0.39000000000000001     
  0.39000000000000001     
  0.39000000000000001     
  0.39000000000000001     
  0.39000000000000001     
  0.39000000000000001     
  0.39000000000000001     
  0.39000000000000001     
  0.39000000000000001     
  0.39000000000000001     
  0.39000000000000001     
  0.39000000000000001     
  0.39000000000000001     
  0.39000000000000001     
  0.39000000000000001     
  0.39000000000000001     
  0.39000000000000001     
  0.39000000000000001     
  0.39000000000000001     
  0.39000000000000001     
  0.39000000000000001     
  0.39000000000000001     
  0.39000000000000001     
  0.39000000000000001     
  0.39000000000000001     
  0.39000000000000001     
  0.39000000000000001     
  0.39000000000000001     
  0.39000000000000001     
  0.39000000000000001     
  0.39000000000000001     
  0.39000000000000001     
  0.39000000000000001     
  0.39000000000000001     
  0.39000000000000001     
  0.39000000000000001     
  0.39000000000000001     
  0.39000000000000001     
  0.39000000000000001     
  0.39000000000000001     
  0.39000000000000001     
  0.39000000000000001     
  0.39000000000000001     
  0.39000000000000001     
  0.54000000000000004     
  0.54000000000000004     
  0.54000000000000004     
  0.54000000000000004     
  0.54000000000000004     
  0.54000000000000004     
  0.54000000000000004     
  0.54000000000000004     
  0.54000000000000004     
  0.54000000000000004     
  0.54000000000000004     
  0.54000000000000004     
  0.54000000000000004     
  0.54000000000000004     
  0.54000000000000004     
  0.54000000000000004     
  0.54000000000000004     
  0.54000000000000004     
  0.54000000000000004     
  0.54000000000000004     
  0.54000000000000004     
  0.54000000000000004     
  0.54000000000000004     
  0.54000000000000004     
  0.54000000000000004     
  0.54000000000000004     
  0.54000000000000004     
  0.54000000000000004     
  0.54000000000000004     
  0.54000000000000004     
  0.54000000000000004     
  0.54000000000000004     
  0.54000000000000004     
  0.54000000000000004     
  0.54000000000000004     
  0.54000000000000004     
  0.54000000000000004     
  0.54000000000000004     
  0.54000000000000004     
  0.54000000000000004     
  0.54000000000000004     
  0.54000000000000004     
  0.54000000000000004     
  0.54000000000000004     
  0.54000000000000004     
  0.54000000000000004     
  0.54000000000000004     
  0.54000000000000004     
  0.54000000000000004     
  0.54000000000000004     
  0.54000000000000004     
  0.54000000000000004     
  0.54000000000000004     
  0.54000000000000004     
  0.54000000000000004     
  0.54000000000000004     
  0.54000000000000004     
  0.54000000000000004     
  0.54000000000000004     
  0.54000000000000004     
  0.54000000000000004     
  0.54000000000000004     
  0.54000000000000004     
  0.84000000000000008     
  0.84000000000000008     
  0.84000000000000008     
  0.84000000000000008     
  0.84000000000000008     
  0.84000000000000008     
  0.84000000000000008     
  0.84000000000000008     
  0.84000000000000008     
  0.84000000000000008     
  0.84000000000000008     
  0.84000000000000008     
  0.84000000000000008     
  0.84000000000000008     
  0.84000000000000008     
  0.84000000000000008     
  0.84000000000000008     
  0.84000000000000008     
  0.84000000000000008     
  0.84000000000000008     
  0.84000000000000008     
  0.84000000000000008     
  0.84000000000000008     
  0.84000000000000008     
  0.84000000000000008     
  0.84000000000000008     
  0.84000000000000008     
  0.84000000000000008     
  0.84000000000000008     
  0.84000000000000008     
  0.84000000000000008     
  0.84000000000000008     
  0.84000000000000008     
  0.84000000000000008     
  0.84000000000000008     
  0.84000000000000008     
  0.84000000000000008     
  0.84000000000000008     
  0.84000000000000008     
  0.84000000000000008     
  0.84000000000000008     
  0.84000000000000008     
  0.84000000000000008     
  0.84000000000000008     
  0.84000000000000008     
  0.84000000000000008     
  0.84000000000000008     
  0.84000000000000008     
  0.84000000000000008     
  0.84000000000000008     
  0.84000000000000008     
  0.84000000000000008     
  0.84000000000000008     
  0.84000000000000008     
  0.84000000000000008     
  0.84000000000000008     
  0.84000000000000008     
  0.84000000000000008     
  0.84000000000000008     
  0.84000000000000008     
  0.84000000000000008     
  0.84000000000000008     
  0.84000000000000008     
   1.1400000000000001     
   1.1400000000000001     
   1.1400000000000001     
   1.1400000000000001     
   1.1400000000000001     
   1.1400000000000001     
   1.1400000000000001     
   1.1400000000000001     
   1.1400000000000001     
   1.1400000000000001     
   1.1400000000000001     
   1.1400000000000001     
   1.1400000000000001     
   1.1400000000000001     
   1.1400000000000001     
   1.1400000000000001     
   1.1400000000000001     
   1.1400000000000001     
   1.1400000000000001     
   1.1400000000000001     
   1.1400000000000001     
   1.1400000000000001     
   1.1400000000000001     
   1.1400000000000001     
   1.1400000000000001     
   1.1400000000000001     
   1.1400000000000001     
   1.1400000000000001     
   1.1400000000000001     
   1.1400000000000001     
   1.1400000000000001     
   1.1400000000000001     
   1.1400000000000001     
   1.1400000000000001     
   1.1400000000000001     
   1.1400000000000001     
   1.1400000000000001     
   1.1400000000000001     
   1.1400000000000001     
   1.1400000000000001     
   1.1400000000000001     
   1.1400000000000001     
   1.1400000000000001     
   1.1400000000000001     
   1.1400000000000001     