# vtk DataFile Version 2.0
3D Unstructured Grid of Linear Triangles
ASCII
DATASET UNSTRUCTURED_GRID
FIELD FieldData  1
TIME 1 1 double
           7.00000
POINTS     1008 float
      5.00000000E-01  1.00000000E+01  1.00000000E+00
      1.00000000E+00  1.00000000E+01  1.00000004E+00
      1.50000000E+00  1.00000000E+01  1.00000011E+00
      2.00000000E+00  1.00000000E+01  1.00000017E+00
      2.50000000E+00  1.00000000E+01  1.00000024E+00
      3.00000000E+00  1.00000000E+01  1.00000030E+00
      3.50000000E+00  1.00000000E+01  1.00000037E+00
      4.00000000E+00  1.00000000E+01  1.00000043E+00
      4.50000000E+00  1.00000000E+01  1.00000050E+00
      5.00000000E+00  1.00000000E+01  1.00000056E+00
      5.50000000E+00  1.00000000E+01  1.00000063E+00
      6.00000000E+00  1.00000000E+01  1.00000069E+00
      6.50000000E+00  1.00000000E+01  1.00000076E+00
      7.00000000E+00  1.00000000E+01  1.00000082E+00
      7.50000000E+00  1.00000000E+01  1.00000084E+00
      0.00000000E+00  9.50000000E+00  1.00000000E+00
      5.00000000E-01  9.50000000E+00  1.00000000E+00
      1.00000000E+00  9.50000000E+00  1.00000003E+00
      1.50000000E+00  9.50000000E+00  1.00000010E+00
      2.00000000E+00  9.50000000E+00  1.00000016E+00
      2.50000000E+00  9.50000000E+00  1.00000023E+00
      3.00000000E+00  9.50000000E+00  1.00000029E+00
      3.50000000E+00  9.50000000E+00  1.00000036E+00
      4.00000000E+00  9.50000000E+00  1.00000042E+00
      4.50000000E+00  9.50000000E+00  1.00000049E+00
      5.00000000E+00  9.50000000E+00  1.00000055E+00
      5.50000000E+00  9.50000000E+00  1.00000062E+00
      6.00000000E+00  9.50000000E+00  1.00000068E+00
      6.50000000E+00  9.50000000E+00  1.00000075E+00
      7.00000000E+00  9.50000000E+00  1.00000081E+00
      7.50000000E+00  9.50000000E+00  1.00000084E+00
      0.00000000E+00  9.00000000E+00  1.00000004E+00
      5.00000000E-01  9.00000000E+00  1.00000003E+00
      1.00000000E+00  9.00000000E+00  1.00000004E+00
      1.50000000E+00  9.00000000E+00  1.00000010E+00
      2.00000000E+00  9.00000000E+00  1.00000016E+00
      2.50000000E+00  9.00000000E+00  1.00000023E+00
      3.00000000E+00  9.00000000E+00  1.00000029E+00
      3.50000000E+00  9.00000000E+00  1.00000036E+00
      4.00000000E+00  9.00000000E+00  1.00000042E+00
      4.50000000E+00  9.00000000E+00  1.00000049E+00
      5.00000000E+00  9.00000000E+00  1.00000055E+00
      5.50000000E+00  9.00000000E+00  1.00000062E+00
      6.00000000E+00  9.00000000E+00  1.00000068E+00
      6.50000000E+00  9.00000000E+00  1.00000075E+00
      7.00000000E+00  9.00000000E+00  1.00000081E+00
      7.50000000E+00  9.00000000E+00  1.00000084E+00
      0.00000000E+00  8.50000000E+00  1.00000007E+00
      5.00000000E-01  8.50000000E+00  1.00000007E+00
      1.00000000E+00  8.50000000E+00  1.00000007E+00
      1.50000000E+00  8.50000000E+00  1.00000009E+00
      2.00000000E+00  8.50000000E+00  1.00000015E+00
      2.50000000E+00  8.50000000E+00  1.00000022E+00
      3.00000000E+00  8.50000000E+00  1.00000028E+00
      3.50000000E+00  8.50000000E+00  1.00000035E+00
      4.00000000E+00  8.50000000E+00  1.00000041E+00
      4.50000000E+00  8.50000000E+00  1.00000048E+00
      5.00000000E+00  8.50000000E+00  1.00000054E+00
      5.50000000E+00  8.50000000E+00  1.00000061E+00
      6.00000000E+00  8.50000000E+00  1.00000067E+00
      6.50000000E+00  8.50000000E+00  1.00000074E+00
      7.00000000E+00  8.50000000E+00  1.00000080E+00
      7.50000000E+00  8.50000000E+00  1.00000084E+00
      5.00000000E-01  1.00000000E+01  9.94000000E-01
      1.00000000E+00  1.00000000E+01  9.94000043E-01
      1.50000000E+00  1.00000000E+01  9.94000108E-01
      2.00000000E+00  1.00000000E+01  9.94000173E-01
      2.50000000E+00  1.00000000E+01  9.94000238E-01
      3.00000000E+00  1.00000000E+01  9.94000303E-01
      3.50000000E+00  1.00000000E+01  9.94000368E-01
      4.00000000E+00  1.00000000E+01  9.94000433E-01
      4.50000000E+00  1.00000000E+01  9.94000498E-01
      5.00000000E+00  1.00000000E+01  9.94000563E-01
      5.50000000E+00  1.00000000E+01  9.94000628E-01
      6.00000000E+00  1.00000000E+01  9.94000693E-01
      6.50000000E+00  1.00000000E+01  9.94000758E-01
      7.00000000E+00  1.00000000E+01  9.94000823E-01
      7.50000000E+00  1.00000000E+01  9.94000845E-01
      0.00000000E+00  9.50000000E+00  9.94000000E-01
      5.00000000E-01  9.50000000E+00  9.94000000E-01
      1.00000000E+00  9.50000000E+00  9.94000033E-01
      1.50000000E+00  9.50000000E+00  9.94000098E-01
      2.00000000E+00  9.50000000E+00  9.94000163E-01
      2.50000000E+00  9.50000000E+00  9.94000227E-01
      3.00000000E+00  9.50000000E+00  9.94000292E-01
      3.50000000E+00  9.50000000E+00  9.94000358E-01
      4.00000000E+00  9.50000000E+00  9.94000423E-01
      4.50000000E+00  9.50000000E+00  9.94000488E-01
      5.00000000E+00  9.50000000E+00  9.94000553E-01
      5.50000000E+00  9.50000000E+00  9.94000618E-01
      6.00000000E+00  9.50000000E+00  9.94000683E-01
      6.50000000E+00  9.50000000E+00  9.94000747E-01
      7.00000000E+00  9.50000000E+00  9.94000812E-01
      7.50000000E+00  9.50000000E+00  9.94000845E-01
      0.00000000E+00  9.00000000E+00  9.94000043E-01
      5.00000000E-01  9.00000000E+00  9.94000033E-01
      1.00000000E+00  9.00000000E+00  9.94000043E-01
      1.50000000E+00  9.00000000E+00  9.94000098E-01
      2.00000000E+00  9.00000000E+00  9.94000163E-01
      2.50000000E+00  9.00000000E+00  9.94000227E-01
      3.00000000E+00  9.00000000E+00  9.94000292E-01
      3.50000000E+00  9.00000000E+00  9.94000358E-01
      4.00000000E+00  9.00000000E+00  9.94000423E-01
      4.50000000E+00  9.00000000E+00  9.94000488E-01
      5.00000000E+00  9.00000000E+00  9.94000553E-01
      5.50000000E+00  9.00000000E+00  9.94000618E-01
      6.00000000E+00  9.00000000E+00  9.94000683E-01
      6.50000000E+00  9.00000000E+00  9.94000747E-01
      7.00000000E+00  9.00000000E+00  9.94000812E-01
      7.50000000E+00  9.00000000E+00  9.94000845E-01
      0.00000000E+00  8.50000000E+00  9.94000065E-01
      5.00000000E-01  8.50000000E+00  9.94000065E-01
      1.00000000E+00  8.50000000E+00  9.94000065E-01
      1.50000000E+00  8.50000000E+00  9.94000087E-01
      2.00000000E+00  8.50000000E+00  9.94000152E-01
      2.50000000E+00  8.50000000E+00  9.94000217E-01
      3.00000000E+00  8.50000000E+00  9.94000282E-01
      3.50000000E+00  8.50000000E+00  9.94000347E-01
      4.00000000E+00  8.50000000E+00  9.94000412E-01
      4.50000000E+00  8.50000000E+00  9.94000477E-01
      5.00000000E+00  8.50000000E+00  9.94000542E-01
      5.50000000E+00  8.50000000E+00  9.94000607E-01
      6.00000000E+00  8.50000000E+00  9.94000672E-01
      6.50000000E+00  8.50000000E+00  9.94000737E-01
      7.00000000E+00  8.50000000E+00  9.94000802E-01
      7.50000000E+00  8.50000000E+00  9.94000845E-01
      5.00000000E-01  1.00000000E+01  9.82000000E-01
      1.00000000E+00  1.00000000E+01  9.82000043E-01
      1.50000000E+00  1.00000000E+01  9.82000108E-01
      2.00000000E+00  1.00000000E+01  9.82000173E-01
      2.50000000E+00  1.00000000E+01  9.82000238E-01
      3.00000000E+00  1.00000000E+01  9.82000303E-01
      3.50000000E+00  1.00000000E+01  9.82000368E-01
      4.00000000E+00  1.00000000E+01  9.82000433E-01
      4.50000000E+00  1.00000000E+01  9.82000498E-01
      5.00000000E+00  1.00000000E+01  9.82000563E-01
      5.50000000E+00  1.00000000E+01  9.82000628E-01
      6.00000000E+00  1.00000000E+01  9.82000693E-01
      6.50000000E+00  1.00000000E+01  9.82000758E-01
      7.00000000E+00  1.00000000E+01  9.82000823E-01
      7.50000000E+00  1.00000000E+01  9.82000845E-01
      0.00000000E+00  9.50000000E+00  9.82000000E-01
      5.00000000E-01  9.50000000E+00  9.82000000E-01
      1.00000000E+00  9.50000000E+00  9.82000033E-01
      1.50000000E+00  9.50000000E+00  9.82000098E-01
      2.00000000E+00  9.50000000E+00  9.82000163E-01
      2.50000000E+00  9.50000000E+00  9.82000227E-01
      3.00000000E+00  9.50000000E+00  9.82000292E-01
      3.50000000E+00  9.50000000E+00  9.82000358E-01
      4.00000000E+00  9.50000000E+00  9.82000423E-01
      4.50000000E+00  9.50000000E+00  9.82000488E-01
      5.00000000E+00  9.50000000E+00  9.82000553E-01
      5.50000000E+00  9.50000000E+00  9.82000618E-01
      6.00000000E+00  9.50000000E+00  9.82000683E-01
      6.50000000E+00  9.50000000E+00  9.82000747E-01
      7.00000000E+00  9.50000000E+00  9.82000812E-01
      7.50000000E+00  9.50000000E+00  9.82000845E-01
      0.00000000E+00  9.00000000E+00  9.82000043E-01
      5.00000000E-01  9.00000000E+00  9.82000033E-01
      1.00000000E+00  9.00000000E+00  9.82000043E-01
      1.50000000E+00  9.00000000E+00  9.82000098E-01
      2.00000000E+00  9.00000000E+00  9.82000163E-01
      2.50000000E+00  9.00000000E+00  9.82000227E-01
      3.00000000E+00  9.00000000E+00  9.82000292E-01
      3.50000000E+00  9.00000000E+00  9.82000358E-01
      4.00000000E+00  9.00000000E+00  9.82000423E-01
      4.50000000E+00  9.00000000E+00  9.82000488E-01
      5.00000000E+00  9.00000000E+00  9.82000553E-01
      5.50000000E+00  9.00000000E+00  9.82000618E-01
      6.00000000E+00  9.00000000E+00  9.82000683E-01
      6.50000000E+00  9.00000000E+00  9.82000747E-01
      7.00000000E+00  9.00000000E+00  9.82000812E-01
      7.50000000E+00  9.00000000E+00  9.82000845E-01
      0.00000000E+00  8.50000000E+00  9.82000065E-01
      5.00000000E-01  8.50000000E+00  9.82000065E-01
      1.00000000E+00  8.50000000E+00  9.82000065E-01
      1.50000000E+00  8.50000000E+00  9.82000087E-01
      2.00000000E+00  8.50000000E+00  9.82000152E-01
      2.50000000E+00  8.50000000E+00  9.82000217E-01
      3.00000000E+00  8.50000000E+00  9.82000282E-01
      3.50000000E+00  8.50000000E+00  9.82000347E-01
      4.00000000E+00  8.50000000E+00  9.82000412E-01
      4.50000000E+00  8.50000000E+00  9.82000477E-01
      5.00000000E+00  8.50000000E+00  9.82000542E-01
      5.50000000E+00  8.50000000E+00  9.82000607E-01
[...]
POINT_DATA     1008
SCALARS pressure float
LOOKUP_TABLE default
   2.8240544623939303E-010
   1.8098844289918338E-010
   9.3918975702334663E-011
   3.4030561986818915E-011
   0.0000000000000000     
   0.0000000000000000     
   0.0000000000000000     
   0.0000000000000000     
   0.0000000000000000     
   0.0000000000000000     
   0.0000000000000000     
   0.0000000000000000     
   0.0000000000000000     
   0.0000000000000000     
   0.0000000000000000     
   2.6091196191899050E-010
   3.0307300472328044E-010
   2.3588388783537543E-010
   1.3359240072061795E-010
   8.0893794129031837E-011
   4.3275367207133340E-011
   2.2022404931701610E-011
   1.1639779837503926E-011
   5.8620765042552275E-012
   0.0000000000000000     
   0.0000000000000000     
   0.0000000000000000     
   0.0000000000000000     
   0.0000000000000000     
   0.0000000000000000     
   0.0000000000000000     
   1.0056774652741111E-010
   1.7583799566155666E-010
   2.0249138853346242E-010
   1.1507853261986402E-010
   6.1484802802188045E-011
   2.8640125492504628E-011
   8.4289611742755214E-012
   0.0000000000000000     
   0.0000000000000000     
   0.0000000000000000     
   0.0000000000000000     
   0.0000000000000000     
   0.0000000000000000     
   0.0000000000000000     
   0.0000000000000000     
   0.0000000000000000     
   4.1231765141563219E-011
   5.0112712346150869E-011
   1.0839844145613749E-010
   1.8586676552146816E-010
   1.0663701639575971E-010
   7.6806544401744123E-011
   5.7867460655637736E-011
   4.7572291044801609E-011
   4.1827118090884831E-011
   3.6499519598092952E-011
   2.7280007233329659E-011
   8.0190849415927917E-012
   0.0000000000000000     
   0.0000000000000000     
   0.0000000000000000     
   0.0000000000000000     
   6.0000012844465683E-003
   6.0000008257048865E-003
   6.0000004297787223E-003
   6.0000001567359768E-003
   5.9999999735740423E-003
   5.9999998773321061E-003
   5.9999998319962217E-003
   5.9999998065992100E-003
   5.9999997798201215E-003
   5.9999997337104091E-003
   5.9999996464347631E-003
   5.9999994906841476E-003
   5.9999992339693506E-003
   5.9999986875159759E-003
   5.9999984842821564E-003
   6.0000011864448539E-003
   6.0000013747737923E-003
   6.0000010715609868E-003
   6.0000006083075711E-003
   6.0000003680332628E-003
   6.0000001965194935E-003
   6.0000000996037282E-003
   6.0000000522925818E-003
   6.0000000259611257E-003
   5.9999999993874788E-003
   5.9999999535424575E-003
   5.9999998644797384E-003
   5.9999997011487361E-003
   5.9999994314318241E-003
   5.9999989195184964E-003
   5.9999985195176384E-003
   6.0000004611110236E-003
   6.0000008001331881E-003
   6.0000009193120225E-003
   6.0000005246742946E-003
   6.0000002810929477E-003
   6.0000001314138660E-003
   6.0000000391828030E-003
   5.9999999916423557E-003
   5.9999999652897741E-003
   5.9999999399426001E-003
   5.9999998959934121E-003
   5.9999998072909665E-003
   5.9999996381500447E-003
   5.9999993534891570E-003
   5.9999988385695128E-003
   5.9999985326915257E-003
   6.0000001911069863E-003
   6.0000002331623559E-003
   6.0000004952627641E-003
   6.0000008416828147E-003
   6.0000004845987076E-003
   6.0000003486124637E-003
   6.0000002622924787E-003
   6.0000002153066476E-003
   6.0000001890844271E-003
   6.0000001648773584E-003
   6.0000001228620583E-003
   6.0000000348663018E-003
   5.9999998602891383E-003
   5.9999995568983597E-003
   5.9999990557960637E-003
   5.9999985328575379E-003
   1.8000003828585676E-002
   1.8000002477894871E-002
   1.8000001298456879E-002
   1.8000000479296448E-002
   1.7999999929988759E-002
   1.7999999641149407E-002
   1.7999999505207403E-002
   1.7999999428982706E-002
   1.7999999348647412E-002
   1.7999999210539561E-002
   1.7999998948471155E-002
   1.7999998481418204E-002
   1.7999997711044713E-002
   1.7999996088328411E-002
   1.7999995477627338E-002
   1.8000003534688235E-002
   1.8000004082844419E-002
   1.8000003191520137E-002
   1.8000001820249287E-002
   1.8000001099502564E-002
   1.8000000584988640E-002
   1.8000000294265156E-002
   1.8000000152311301E-002
   1.8000000073275946E-002
   1.7999999993614867E-002
   1.7999999856117829E-002
   1.7999999588904178E-002
   1.7999999098896921E-002
   1.7999998289728536E-002
   1.7999996768008650E-002
   1.7999995586370089E-002
   1.8000001400557315E-002
   1.8000002391137682E-002
   1.8000002734883419E-002
   1.8000001573796852E-002
   1.8000000847810664E-002
   1.8000000398665963E-002
   1.8000000122145862E-002
   1.7999999979467985E-002
   1.7999999900421230E-002
   1.7999999824365689E-002
   1.7999999692564890E-002
   1.7999999426509445E-002
   1.7999998919087337E-002
   1.7999998065081114E-002
   1.7999996534125755E-002
   1.7999995625786438E-002
   1.8000000597909148E-002
   1.8000000726959505E-002
   1.8000001493685216E-002
   1.8000002495517482E-002
   1.8000001444553684E-002
   1.8000001036695905E-002
   1.8000000777667852E-002
   1.8000000636771814E-002
   1.8000000558180549E-002
   1.8000000485385071E-002
   1.8000000359264311E-002
   1.8000000095801529E-002
   1.7999999571524147E-002
   1.7999998661546210E-002
   1.7999997168490805E-002
   1.7999995629810608E-002
   3.6000007580939158E-002
   3.6000004956021875E-002
   3.6000002623398468E-002
   3.6000000984942306E-002
   3.5999999886267876E-002
   3.5999999308672884E-002
   3.5999999037029828E-002
   3.5999998884427620E-002
   3.5999998724094547E-002
   3.5999998447722954E-002
   3.5999997923854769E-002
   3.5999996989842027E-002
   3.5999995449644530E-002
   3.5999992254162477E-002
   3.5999991031106675E-002
   3.6000006993953712E-002
   3.6000008044462704E-002
   3.6000006314747653E-002
   3.6000003626592163E-002
   3.6000002185776044E-002
   3.6000001156644139E-002
   3.6000000575319414E-002
   3.6000000291441285E-002
   3.6000000133469767E-002
   3.5999999974316382E-002
   3.5999999699362094E-002
   3.5999999164908571E-002
   3.5999998185086680E-002
   3.5999996567183959E-002
   3.5999993564686229E-002
   3.5999991254364844E-002
   3.6000002851475456E-002
   3.6000004754906674E-002
   3.6000005402207894E-002
   3.6000003145739916E-002
   3.6000001708370415E-002
   3.6000000810178089E-002
   3.6000000257265595E-002
   3.5999999971979210E-002
   3.5999999813958197E-002
   3.5999999661908880E-002
   3.5999999398391290E-002
   3.5999998866311396E-002
   3.5999997851673259E-002
   3.5999996144023674E-002
   3.5999993122669896E-002
   3.5999991333900097E-002
   3.6000001270733668E-002
   3.6000001533516970E-002
   3.6000003010203757E-002
   3.6000004907338776E-002
   3.6000002861650525E-002
   3.6000002046534287E-002
   3.6000001528616266E-002
   3.6000001246937051E-002
   3.6000001089900535E-002
   3.6000000944332727E-002
   3.6000000692103032E-002
   3.6000000165459879E-002
   3.5999999117002891E-002
   3.5999997296979655E-002
   3.5999994340714526E-002
   3.5999991347151712E-002
   6.0000012465523118E-002
   6.0000008256187551E-002
   6.0000004428181215E-002
   6.0000001696920338E-002
   5.9999999865602373E-002
   5.9999998903341838E-002
   5.9999998451209499E-002
   5.9999998196873690E-002
   5.9999997930141782E-002
   5.9999997469697634E-002
   5.9999996597132878E-002
   5.9999995041141174E-002
   5.9999992476835073E-002
   5.9999987259783602E-002
   5.9999985218452651E-002
   6.0000011490423194E-002
   6.0000013147454102E-002
   6.0000010376361927E-002
   6.0000006013630564E-002
   6.0000003614818651E-002
   6.0000001899382989E-002
   6.0000000930821307E-002
   6.0000000458038501E-002
   6.0000000195034972E-002
   5.9999999930024847E-002
   5.9999999472190549E-002
   5.9999998581751000E-002
   5.9999996949257416E-002
   5.9999994254547905E-002
   5.9999989339458847E-002
   5.9999985600395885E-002
   6.0000004858657821E-002
   6.0000007865293421E-002
   6.0000008858351557E-002
   6.0000005235505083E-002
   6.0000002873229277E-002
   6.0000001376778037E-002
   6.0000000455487347E-002
   5.9999999980355885E-002
   5.9999999717254456E-002
   5.9999999464118950E-002
   5.9999999025282781E-002
   5.9999998138952210E-002
   5.9999996448467083E-002
   5.9999993603931941E-002
   5.9999988655469919E-002
   5.9999985735321615E-002
   6.0000002281755713E-002
   6.0000002724272077E-002
   6.0000005063288814E-002
   6.0000008003364545E-002
   6.0000004709509169E-002
   6.0000003353720355E-002
   6.0000002490788601E-002
   6.0000002021766280E-002
   6.0000001760196306E-002
   6.0000001517870868E-002
   6.0000001098116700E-002
   6.0000000220980260E-002
   5.9999998473990859E-002
   5.9999995440890776E-002
   5.9999990577544661E-002
   5.9999985764777559E-002
   9.0000018385001920E-002
   9.0000012368630103E-002
   9.0000006740104416E-002
   9.0000002641760349E-002
   8.9999999894056257E-002
   8.9999998452241228E-002
   8.9999997775444943E-002
   8.9999997394871425E-002
   8.9999996995551210E-002
   8.9999996305752714E-002
   8.9999994998189475E-002
   8.9999992666263295E-002
   8.9999988827527064E-002
   8.9999981198610135E-002
   8.9999978133784339E-002
   9.0000016931513618E-002
   9.0000019255062874E-002
   9.0000015294762578E-002
   9.0000008963317626E-002
   9.0000005372293884E-002
   9.0000002798650156E-002
   9.0000001346688466E-002
   9.0000000638631381E-002
   9.0000000245011202E-002
   8.9999999848264303E-002
   8.9999999162419880E-002
   8.9999997827963418E-002
   8.9999995380635342E-002
   8.9999991343854571E-002
   8.9999984133513511E-002
   8.9999978720381013E-002
   9.0000007472855428E-002
   9.0000011688972689E-002
   9.0000013025632583E-002
   9.0000007832213555E-002
   9.0000004353029114E-002
   9.0000002110126889E-002
   9.0000000728833116E-002
   9.0000000017105147E-002
   8.9999999623284310E-002
   8.9999999244382789E-002
   8.9999998587307076E-002
   8.9999997259278874E-002
   8.9999994725059970E-002
   8.9999990462755627E-002
   8.9999983197216735E-002
   8.9999978929325694E-002
   9.0000003718997246E-002
   9.0000004382789725E-002
   9.0000007670464677E-002
   9.0000011696708695E-002
   9.0000006954635156E-002
   9.0000004928559793E-002
   9.0000003635113360E-002
   9.0000002932556014E-002
   9.0000002541041013E-002
   9.0000002178428018E-002
   9.0000001550314596E-002
   9.0000000236451716E-002
   8.9999997617311492E-002
   8.9999993068939618E-002
   8.9999985888940176E-002
   8.9999978981230799E-002
  0.12000002409828321     
  0.12000001645718472     
  0.12000000910678722     
  0.12000000363976809     
  0.11999999997519142     
  0.11999999805577719     
  0.11999999715615847     
  0.11999999665050855     
  0.11999999611955134     
  0.11999999520148298     
  0.11999999346054739     
  0.11999999035512122     
  0.11999998525178296     
  0.11999997533398990     
  0.11999997124658830     
  0.12000002217704663     
  0.12000002508298616     
  0.12000002004515999     
  0.12000001187529773     
  0.12000000710023213     
  0.12000000366794936     
  0.12000000173375258     
  0.12000000079181684     
  0.12000000026863090     
  0.11999999974101365     
  0.11999999882845998     
  0.11999999705140073     
  0.11999999379104764     
  0.11999998841842660     
  0.11999997901346551     
  0.11999997203749901     
  0.12000001019064954     
  0.12000001544361570     
  0.12000001703323032     
  0.12000001040492701     
  0.12000000585373287     
  0.12000000286664718     
  0.12000000102607099     
  0.12000000007897953     
  0.11999999955547221     
  0.11999999905184573     
  0.11999999817784779     
  0.11999999641002554     
  0.11999999303397176     
  0.11999998735928098     
  0.11999997787194383     
  0.11999997232782450     
  0.12000000534041601     
  0.12000000621091723     
  0.12000001031384458     
  0.12000001521593684     
  0.12000000913093101     
  0.12000000644281429     
  0.12000000472021119     
  0.12000000378509959     
  0.12000000326462713     
  0.12000000278290596     
  0.12000000194806604     
  0.12000000019974570     
  0.11999999671023155     
  0.11999999064796084     
  0.11999998122036515     
  0.11999997239511632     
  0.18000003499630213     
  0.18000002456808101     
  0.18000001398104593     
  0.18000000577507130     
  0.18000000027668875     
  0.17999999740950140     
  0.17999999607047126     
  0.17999999531860633     
  0.17999999452731300     
  0.17999999315675380     
  0.17999999055476124     
  0.17999998591175101     
  0.17999997831190651     
  0.17999996412013697     
  0.17999995797528481     
  0.18000003217401758     
  0.18000003595423847     
  0.18000002906335594     
  0.18000001758235812     
  0.18000001047172223     
  0.18000000532350358     
  0.18000000242990929     
  0.18000000102569075     
  0.18000000024727406     
  0.17999999946154471     
  0.17999999809994438     
  0.17999999544388112     
  0.17999999056440830     
  0.17999998254480268     
  0.17999996903853452     
  0.17999995923666237     
  0.18000001587391160     
  0.18000002274872826     
  0.18000002459811951     
  0.18000001546131891     
  0.18000000890054824     
  0.18000000443567010     
  0.18000000168065292     
  0.18000000026749799     
  0.17999999948854625     
  0.17999999873931236     
  0.17999999743669001     
  0.17999999479645040     
  0.17999998974492373     
  0.17999998126677935     
  0.17999996760665493     
  0.17999995971752455     
  0.18000000901779595     
  0.18000001030874754     
  0.18000001564888352     
  0.18000002174110585     
  0.18000001328171081     
  0.18000000930029281     
  0.18000000672567812     
  0.18000000533028895     
  0.18000000455613657     
  0.18000000384078554     
  0.18000000259927129     
  0.17999999999165717     
  0.17999999476979378     
  0.17999998568921460     
  0.17999997198999837     
  0.17999995985042563     
  0.24000004516069001     
  0.24000003251438615     
  0.24000001898640635     
  0.24000000804128921     
  0.24000000071306804     
  0.23999999691465793     
  0.23999999514945625     
  0.23999999415967593     
  0.23999999311460998     
  0.23999999129990204     
  0.23999998784938800     
  0.23999998168923717     
  0.23999997165720471     
  0.23999995358901005     
  0.23999994539676425     
  0.24000004150128551     
  0.24000004591547250     
  0.24000003749036708     
  0.24000002312973764     
  0.24000001373981777     
  0.24000000688031548     
  0.24000000303803162     
  0.24000000118196135     
  0.24000000015578829     
  0.23999999911863987     
  0.23999999731667218     
  0.23999999379360776     
  0.23999998731049046     
  0.23999997668893147     
  0.23999995942870195     
  0.23999994712369338     
  0.24000002180845290     
  0.24000002979062490     
  0.24000003162141878     
  0.24000002036297635     
  0.24000001197265192     
  0.24000000604975577     
  0.24000000238912086     
  0.24000000051916184     
  0.23999999949213202     
  0.23999999850452819     
  0.23999999678331913     
  0.23999999328503649     
  0.23999998657530289     
  0.23999997533281647     
  0.23999995781985420     
  0.23999994783915085     
  0.24000001323024522     
  0.24000001486835021     
  0.24000002101194873     
  0.24000002773115239     
  0.24000001718712294     
  0.24000001196011775     
  0.24000000854522388     
  0.24000000669785918     
  0.24000000567709737     
  0.24000000473599853     
  0.24000000309956288     
  0.23999999964980018     
  0.23999999271224307     
  0.23999998063134279     
  0.23999996290540065     
  0.23999994799478416     
  0.39000006800645581     
  0.39000005156400719     
  0.39000003167235525     
  0.39000001407161516     
  0.39000000227112752     
  0.38999999622688558     
  0.38999999344688485     
  0.38999999189221868     
  0.38999999023854531     
  0.38999998734891328     
  0.38999998183416795     
  0.38999997198238162     
  0.38999995616377481     
  0.38999992972231068     
  0.38999991663705169     
  0.39000006251663305     
  0.39000006728391884     
  0.39000005612528943     
  0.39000003614569373     
  0.39000002142183032     
  0.39000001041205967     
  0.39000000427725567     
  0.39000000134169127     
  0.38999999972842114     
  0.38999999809347263     
  0.38999999523384110     
  0.38999998960791865     
  0.38999997921273100     
  0.38999996237204126     
  0.38999993711395486     
  0.38999991975082432     
  0.39000003713259862     
  0.39000004616384643     
  0.39000004709184222     
  0.39000003183512222     
  0.39000001954301522     
  0.39000001015308283     
  0.39000000430856047     
  0.39000000134417634     
  0.38999999972854865     
  0.38999999817692199     
  0.38999999545652664     
  0.38999998988622037     
  0.38999997913764717     
  0.38999996126162773     
  0.38999993546435174     
  0.38999992127522382     
  0.39000002497435537     
  0.39000002742370932     
  0.39000003403603389     
  0.39000004054842452     
  0.39000002592912941     
  0.39000001779502208     
  0.39000001237678494     
  0.39000000945298618     
  0.39000000785126537     
  0.39000000638454529     
  0.39000000382180022     
  0.38999999836183796     
  0.38999998725710122     
  0.38999996791385783     
  0.38999994139034400     
  0.38999992162306635     
  0.54000008724398885     
  0.54000006881119711     
  0.54000004389094869     
  0.54000002003291370     
  0.54000000405271065     
  0.53999999596876458     
  0.53999999228985340     
  0.53999999023720635     
  0.53999998803531579     
  0.53999998415791672     
  0.53999997672292110     
  0.53999996343267642     
  0.53999994242977600     
  0.53999990929265052     
  0.53999989179737495     
  0.54000008035460789     
  0.54000008480471207     
  0.54000007179480669     
  0.54000004784049027     
  0.54000002837448913     
  0.54000001348721893     
  0.54000000523326008     
  0.54000000131813841     
  0.53999999917907038     
  0.53999999700572610     
  0.53999999317717340     
  0.53999998559393114     
  0.53999997152998402     
  0.53999994900677406     
  0.53999991732124608     
  0.53999989600066833     
  0.54000005221772895     
  0.54000006077083684     
  0.54000006003773415     
  0.54000004199369300     
  0.54000002665836844     
  0.54000001410895293     
  0.54000000625094513     
  0.54000000228873757     
  0.54000000014481875     
  0.53999999809062127     
  0.53999999446712532     
  0.53999998698575513     
  0.53999997245700249     
  0.53999994845626009     
  0.53999991587124274     
  0.53999989856098474     
  0.54000003734004731     
  0.54000004034743254     
  0.54000004617105002     
  0.54000005129406248     
  0.54000003345476533     
  0.54000002272675662     
  0.54000001547449283     
  0.54000001156455013     
  0.54000000943746040     
  0.54000000750622656     
  0.54000000411950511     
  0.53999999682517086     
  0.53999998182439368     
  0.53999995567347869     
  0.53999992166738475     
  0.53999989879388255     
  0.84000011724518930     
  0.84000009655860963     
  0.84000006433729790     
  0.84000003084859964     
  0.84000000800806418     
  0.83999999640707024     
  0.83999999111718382     
  0.83999998815944588     
  0.83999998497434403     
  0.83999997933826098     
  0.83999996849959246     
  0.83999994922831855     
  0.83999991966945597     
  0.83999987683203192     
  0.83999985383212084     
  0.84000010851186202     
  0.84000011087221660     
  0.84000009558966515     
  0.84000006650613579     
  0.84000003988340233     
  0.84000001882828090     
  0.84000000701420408     
  0.84000000137100550     
  0.83999999828534022     
  0.83999999516164781     
  0.83999998963877820     
  0.83999997863286358     
  0.83999995825041673     
  0.83999992653313504     
  0.83999988569301132     
  0.83999985926189147     
  0.84000007810138488     
  0.84000008427745476     
  0.84000008023091621     
  0.84000005842496117     
  0.84000003849872995     
  0.84000002102497162     
  0.84000000985350565     
  0.84000000414512710     
  0.84000000104480776     
  0.83999999810090464     
  0.83999999290506411     
  0.83999998209360038     
  0.83999996105638652     
  0.83999992713220351     