# vtk DataFile Version 2.0
3D Unstructured Grid of Linear Triangles
ASCII
DATASET UNSTRUCTURED_GRID
FIELD FieldData  1
TIME 1 1 double
        3600.00000
POINTS     1008 float
      5.00000000E-01  1.00000000E+01  1.00000000E+00
      1.00000000E+00  1.00000000E+01  1.00000004E+00
      1.50000000E+00  1.00000000E+01  1.00000011E+00
      2.00000000E+00  1.00000000E+01  1.00000017E+00
      2.50000000E+00  1.00000000E+01  1.00000024E+00
      3.00000000E+00  1.00000000E+01  1.00000030E+00
      3.50000000E+00  1.00000000E+01  1.00000037E+00
      4.00000000E+00  1.00000000E+01  1.00000043E+00
      4.50000000E+00  1.00000000E+01  1.00000050E+00
      5.00000000E+00  1.00000000E+01  1.00000056E+00
      5.50000000E+00  1.00000000E+01  1.00000063E+00
      6.00000000E+00  1.00000000E+01  1.00000069E+00
      6.50000000E+00  1.00000000E+01  1.00000076E+00
      7.00000000E+00  1.00000000E+01  1.00000082E+00
      7.50000000E+00  1.00000000E+01  1.00000084E+00
      0.00000000E+00  9.50000000E+00  1.00000000E+00
      5.00000000E-01  9.50000000E+00  1.00000000E+00
      1.00000000E+00  9.50000000E+00  1.00000003E+00
      1.50000000E+00  9.50000000E+00  1.00000010E+00
      2.00000000E+00  9.50000000E+00  1.00000016E+00
      2.50000000E+00  9.50000000E+00  1.00000023E+00
      3.00000000E+00  9.50000000E+00  1.00000029E+00
      3.50000000E+00  9.50000000E+00  1.00000036E+00
      4.00000000E+00  9.50000000E+00  1.00000042E+00
      4.50000000E+00  9.50000000E+00  1.00000049E+00
      5.00000000E+00  9.50000000E+00  1.00000055E+00
      5.50000000E+00  9.50000000E+00  1.00000062E+00
      6.00000000E+00  9.50000000E+00  1.00000068E+00
      6.50000000E+00  9.50000000E+00  1.00000075E+00
      7.00000000E+00  9.50000000E+00  1.00000081E+00
      7.50000000E+00  9.50000000E+00  1.00000084E+00
      0.00000000E+00  9.00000000E+00  1.00000004E+00
      5.00000000E-01  9.00000000E+00  1.00000003E+00
      1.00000000E+00  9.00000000E+00  1.00000004E+00
      1.50000000E+00  9.00000000E+00  1.00000010E+00
      2.00000000E+00  9.00000000E+00  1.00000016E+00
      2.50000000E+00  9.00000000E+00  1.00000023E+00
      3.00000000E+00  9.00000000E+00  1.00000029E+00
      3.50000000E+00  9.00000000E+00  1.00000036E+00
      4.00000000E+00  9.00000000E+00  1.00000042E+00
      4.50000000E+00  9.00000000E+00  1.00000049E+00
      5.00000000E+00  9.00000000E+00  1.00000055E+00
      5.50000000E+00  9.00000000E+00  1.00000062E+00
      6.00000000E+00  9.00000000E+00  1.00000068E+00
      6.50000000E+00  9.00000000E+00  1.00000075E+00
      7.00000000E+00  9.00000000E+00  1.00000081E+00
      7.50000000E+00  9.00000000E+00  1.00000084E+00
      0.00000000E+00  8.50000000E+00  1.00000007E+00
      5.00000000E-01  8.50000000E+00  1.00000007E+00
      1.00000000E+00  8.50000000E+00  1.00000007E+00
      1.50000000E+00  8.50000000E+00  1.00000009E+00
      2.00000000E+00  8.50000000E+00  1.00000015E+00
      2.50000000E+00  8.50000000E+00  1.00000022E+00
      3.00000000E+00  8.50000000E+00  1.00000028E+00
      3.50000000E+00  8.50000000E+00  1.00000035E+00
      4.00000000E+00  8.50000000E+00  1.00000041E+00
      4.50000000E+00  8.50000000E+00  1.00000048E+00
      5.00000000E+00  8.50000000E+00  1.00000054E+00
      5.50000000E+00  8.50000000E+00  1.00000061E+00
      6.00000000E+00  8.50000000E+00  1.00000067E+00
      6.50000000E+00  8.50000000E+00  1.00000074E+00
      7.00000000E+00  8.50000000E+00  1.00000080E+00
      7.50000000E+00  8.50000000E+00  1.00000084E+00
      5.00000000E-01  1.00000000E+01  9.94000000E-01
      1.00000000E+00  1.00000000E+01  9.94000043E-01
      1.50000000E+00  1.00000000E+01  9.94000108E-01
      2.00000000E+00  1.00000000E+01  9.94000173E-01
      2.50000000E+00  1.00000000E+01  9.94000238E-01
      3.00000000E+00  1.00000000E+01  9.94000303E-01
      3.50000000E+00  1.00000000E+01  9.94000368E-01
      4.00000000E+00  1.00000000E+01  9.94000433E-01
      4.50000000E+00  1.00000000E+01  9.94000498E-01
      5.00000000E+00  1.00000000E+01  9.94000563E-01
      5.50000000E+00  1.00000000E+01  9.94000628E-01
      6.00000000E+00  1.00000000E+01  9.94000693E-01
      6.50000000E+00  1.00000000E+01  9.94000758E-01
      7.00000000E+00  1.00000000E+01  9.94000823E-01
      7.50000000E+00  1.00000000E+01  9.94000845E-01
      0.00000000E+00  9.50000000E+00  9.94000000E-01
      5.00000000E-01  9.50000000E+00  9.94000000E-01
      1.00000000E+00  9.50000000E+00  9.94000033E-01
      1.50000000E+00  9.50000000E+00  9.94000098E-01
      2.00000000E+00  9.50000000E+00  9.94000163E-01
      2.50000000E+00  9.50000000E+00  9.94000227E-01
      3.00000000E+00  9.50000000E+00  9.94000292E-01
      3.50000000E+00  9.50000000E+00  9.94000358E-01
      4.00000000E+00  9.50000000E+00  9.94000423E-01
      4.50000000E+00  9.50000000E+00  9.94000488E-01
      5.00000000E+00  9.50000000E+00  9.94000553E-01
      5.50000000E+00  9.50000000E+00  9.94000618E-01
      6.00000000E+00  9.50000000E+00  9.94000683E-01
      6.50000000E+00  9.50000000E+00  9.94000747E-01
      7.00000000E+00  9.50000000E+00  9.94000812E-01
      7.50000000E+00  9.50000000E+00  9.94000845E-01
      0.00000000E+00  9.00000000E+00  9.94000043E-01
      5.00000000E-01  9.00000000E+00  9.94000033E-01
      1.00000000E+00  9.00000000E+00  9.94000043E-01
      1.50000000E+00  9.00000000E+00  9.94000098E-01
      2.00000000E+00  9.00000000E+00  9.94000163E-01
      2.50000000E+00  9.00000000E+00  9.94000227E-01
      3.00000000E+00  9.00000000E+00  9.94000292E-01
      3.50000000E+00  9.00000000E+00  9.94000358E-01
      4.00000000E+00  9.00000000E+00  9.94000423E-01
      4.50000000E+00  9.00000000E+00  9.94000488E-01
      5.00000000E+00  9.00000000E+00  9.94000553E-01
      5.50000000E+00  9.00000000E+00  9.94000618E-01
      6.00000000E+00  9.00000000E+00  9.94000683E-01
      6.50000000E+00  9.00000000E+00  9.94000747E-01
      7.00000000E+00  9.00000000E+00  9.94000812E-01
      7.50000000E+00  9.00000000E+00  9.94000845E-01
      0.00000000E+00  8.50000000E+00  9.94000065E-01
      5.00000000E-01  8.50000000E+00  9.94000065E-01
      1.00000000E+00  8.50000000E+00  9.94000065E-01
      1.50000000E+00  8.50000000E+00  9.94000087E-01
      2.00000000E+00  8.50000000E+00  9.94000152E-01
      2.50000000E+00  8.50000000E+00  9.94000217E-01
      3.00000000E+00  8.50000000E+00  9.94000282E-01
      3.50000000E+00  8.50000000E+00  9.94000347E-01
      4.00000000E+00  8.50000000E+00  9.94000412E-01
      4.50000000E+00  8.50000000E+00  9.94000477E-01
      5.00000000E+00  8.50000000E+00  9.94000542E-01
      5.50000000E+00  8.50000000E+00  9.94000607E-01
      6.00000000E+00  8.50000000E+00  9.94000672E-01
      6.50000000E+00  8.50000000E+00  9.94000737E-01
      7.00000000E+00  8.50000000E+00  9.94000802E-01
      7.50000000E+00  8.50000000E+00  9.94000845E-01
      5.00000000E-01  1.00000000E+01  9.82000000E-01
      1.00000000E+00  1.00000000E+01  9.82000043E-01
      1.50000000E+00  1.00000000E+01  9.82000108E-01
      2.00000000E+00  1.00000000E+01  9.82000173E-01
      2.50000000E+00  1.00000000E+01  9.82000238E-01
      3.00000000E+00  1.00000000E+01  9.82000303E-01
      3.50000000E+00  1.00000000E+01  9.82000368E-01
      4.00000000E+00  1.00000000E+01  9.82000433E-01
      4.50000000E+00  1.00000000E+01  9.82000498E-01
      5.00000000E+00  1.00000000E+01  9.82000563E-01
      5.50000000E+00  1.00000000E+01  9.82000628E-01
      6.00000000E+00  1.00000000E+01  9.82000693E-01
      6.50000000E+00  1.00000000E+01  9.82000758E-01
      7.00000000E+00  1.00000000E+01  9.82000823E-01
      7.50000000E+00  1.00000000E+01  9.82000845E-01
      0.00000000E+00  9.50000000E+00  9.82000000E-01
      5.00000000E-01  9.50000000E+00  9.82000000E-01
      1.00000000E+00  9.50000000E+00  9.82000033E-01
      1.50000000E+00  9.50000000E+00  9.82000098E-01
      2.00000000E+00  9.50000000E+00  9.82000163E-01
      2.50000000E+00  9.50000000E+00  9.82000227E-01
      3.00000000E+00  9.50000000E+00  9.82000292E-01
      3.50000000E+00  9.50000000E+00  9.82000358E-01
      4.00000000E+00  9.50000000E+00  9.82000423E-01
      4.50000000E+00  9.50000000E+00  9.82000488E-01
      5.00000000E+00  9.50000000E+00  9.82000553E-01
      5.50000000E+00  9.50000000E+00  9.82000618E-01
      6.00000000E+00  9.50000000E+00  9.82000683E-01
      6.50000000E+00  9.50000000E+00  9.82000747E-01
      7.00000000E+00  9.50000000E+00  9.82000812E-01
      7.50000000E+00  9.50000000E+00  9.82000845E-01
      0.00000000E+00  9.00000000E+00  9.82000043E-01
      5.00000000E-01  9.00000000E+00  9.82000033E-01
      1.00000000E+00  9.00000000E+00  9.82000043E-01
      1.50000000E+00  9.00000000E+00  9.82000098E-01
      2.00000000E+00  9.00000000E+00  9.82000163E-01
      2.50000000E+00  9.00000000E+00  9.82000227E-01
      3.00000000E+00  9.00000000E+00  9.82000292E-01
      3.50000000E+00  9.00000000E+00  9.82000358E-01
      4.00000000E+00  9.00000000E+00  9.82000423E-01
      4.50000000E+00  9.00000000E+00  9.82000488E-01
      5.00000000E+00  9.00000000E+00  9.82000553E-01
      5.50000000E+00  9.00000000E+00  9.82000618E-01
      6.00000000E+00  9.00000000E+00  9.82000683E-01
      6.50000000E+00  9.00000000E+00  9.82000747E-01
      7.00000000E+00  9.00000000E+00  9.82000812E-01
      7.50000000E+00  9.00000000E+00  9.82000845E-01
      0.00000000E+00  8.50000000E+00  9.82000065E-01
      5.00000000E-01  8.50000000E+00  9.82000065E-01
      1.00000000E+00  8.50000000E+00  9.82000065E-01
      1.50000000E+00  8.50000000E+00  9.82000087E-01
      2.00000000E+00  8.50000000E+00  9.82000152E-01
      2.50000000E+00  8.50000000E+00  9.82000217E-01
      3.00000000E+00  8.50000000E+00  9.82000282E-01
      3.50000000E+00  8.50000000E+00  9.82000347E-01
      4.00000000E+00  8.50000000E+00  9.82000412E-01
      4.50000000E+00  8.50000000E+00  9.82000477E-01
      5.00000000E+00  8.50000000E+00  9.82000542E-01
      5.50000000E+00  8.50000000E+00  9.82000607E-01
[...]
POINT_DATA     1008
SCALARS pressure float
LOOKUP_TABLE default
   3.9097300226483912E-009
   3.6255043469171925E-007
   1.4931894145080053E-006
   2.1102852234355251E-006
   1.3545820069916393E-006
   5.0541883382692299E-007
   2.6492328583381101E-006
   3.8067235529369521E-006
   1.3279582817019510E-006
   7.9127912636148003E-007
   7.2378514093717986E-007
   3.8746252585149962E-007
   2.5024360902338087E-007
   1.6910435711711504E-007
   1.4684392994440121E-007
   5.3436795635980227E-007
   5.8690903412622929E-007
   6.0452340528659506E-007
   8.8758745397822373E-007
   1.2266178895293003E-006
   1.2163759902929733E-006
   1.0305325933815789E-006
   1.0126334082172480E-006
   3.2873422515748625E-006
   3.6219385237695397E-006
   1.2207377923295300E-006
   7.9840581369693275E-007
   4.5583204563479215E-007
   2.7402261895424560E-007
   1.8413883446075325E-007
   1.4773385713389188E-007
   1.9489897476141646E-006
   1.7972193878914832E-006
   1.0745153909944543E-006
   8.7138440131223952E-007
   7.1441027847779266E-007
   3.8713724185938280E-007
   5.4524542350767630E-007
   5.3758753261965238E-007
   7.0114472660130465E-007
   2.2025780897054365E-006
   1.7439144113396122E-006
   2.9581712162006300E-007
   3.0096201079234993E-007
   1.4586296648274048E-007
   1.0249211560646754E-007
   9.9828527219945662E-008
   2.6569226082011053E-006
   2.7963845551580199E-006
   2.1287524841329184E-006
   5.2990161265247003E-007
   1.0196469529773250E-006
   5.5544899722491147E-007
   3.5422722295685734E-009
   3.3148081502450662E-009
   4.0951247793532052E-009
   6.1712886087243753E-009
   5.0278080765512871E-009
   2.3719018935692728E-009
   1.6744168357099864E-009
   1.1004154366759108E-009
   7.5997973419966135E-010
   5.3437877549478831E-010
   6.0000204885675224E-003
   6.0003736163907508E-003
   6.0014839095852823E-003
   6.0020909163687177E-003
   6.0013508268725486E-003
   6.0005243308339220E-003
   6.0026253702649942E-003
   6.0037722621582093E-003
   6.0013512074709591E-003
   6.0008002166202484E-003
   6.0007239087959598E-003
   6.0003898598524228E-003
   6.0002516078852706E-003
   6.0001699859324863E-003
   6.0001475453068873E-003
   6.0005493658498599E-003
   6.0005981607916935E-003
   6.0006118721316381E-003
   6.0008915136920285E-003
   6.0012254954501798E-003
   6.0012121986765003E-003
   6.0010285395247498E-003
   6.0010263639924122E-003
   6.0032579352956549E-003
   6.0035811281363817E-003
   6.0012264245368338E-003
   6.0007966669293660E-003
   6.0004562056187169E-003
   6.0002746368736483E-003
   6.0001845508042230E-003
   6.0001481479412854E-003
   6.0019415814585040E-003
   6.0017907803780841E-003
   6.0010794826063502E-003
   6.0008727612865425E-003
   6.0007190184828965E-003
   6.0003975601614305E-003
   6.0005486485701582E-003
   6.0005437694928710E-003
   6.0007171527907167E-003
   6.0021846670733842E-003
   6.0017270331132553E-003
   6.0003053800769630E-003
   6.0003019480478819E-003
   6.0001480667291251E-003
   6.0001037623982128E-003
   6.0001003725744682E-003
   6.0026408821595651E-003
   6.0027742092643027E-003
   6.0021112372578671E-003
   6.0005450270628905E-003
   6.0010136586848796E-003
   6.0005577230029510E-003
   6.0000184936278237E-003
   6.0000173540078775E-003
   6.0000214365421717E-003
   6.0000321352202410E-003
   6.0000261874053364E-003
   6.0000124307536219E-003
   6.0000087607037893E-003
   6.0000057645326751E-003
   6.0000039824265293E-003
   6.0000028021175017E-003
   1.8000053094119298E-002
   1.8000396339427488E-002
   1.8001464339422797E-002
   1.8002049848222901E-002
   1.8001342998898211E-002
   1.8000561315065295E-002
   1.8002572638383216E-002
   1.8003693980207857E-002
   1.8001390440669549E-002
   1.8000818191513515E-002
   1.8000724919423318E-002
   1.8000395097960750E-002
   1.8000254874703862E-002
   1.8000172161446601E-002
   1.8000149325343918E-002
   1.8000579719730767E-002
   1.8000621358314942E-002
   1.8000627724296753E-002
   1.8000899858946460E-002
   1.8001222094727980E-002
   1.8001203707480554E-002
   1.8001026399504121E-002
   1.8001051312373270E-002
   1.8003192132936982E-002
   1.8003493359330824E-002
   1.8001235018923485E-002
   1.8000794245529035E-002
   1.8000457592355867E-002
   1.8000276512163980E-002
   1.8000185867383677E-002
   1.8000149377928865E-002
   1.8001922655802766E-002
   1.8001775868071408E-002
   1.8001089224618187E-002
   1.8000877392559109E-002
   1.8000729477597215E-002
   1.8000418639237258E-002
   1.8000556337670337E-002
   1.8000556983633929E-002
   1.8000746226041919E-002
   1.8002145116368967E-002
   1.8001691391105756E-002
   1.8000323802228213E-002
   1.8000304547769467E-002
   1.8000152745851795E-002
   1.8000106585233225E-002
   1.8000101768047772E-002
   1.8002602051072566E-002
   1.8002724317974773E-002
   1.8002073940391480E-002
   1.8000575016124416E-002
   1.8001004348565875E-002
   1.8000563534696264E-002
   1.8000047680925294E-002
   1.8000044970208885E-002
   1.8000055506296540E-002
   1.8000082213546962E-002
   1.8000067041673385E-002
   1.8000032282526501E-002
   1.8000022673282656E-002
   1.8000014961704596E-002
   1.8000010343125532E-002
   1.8000007298836225E-002
   3.6000100558722312E-002
   3.6000429195195680E-002
   3.6001436713229550E-002
   3.6001991360066252E-002
   3.6001331656572794E-002
   3.6000612994838886E-002
   3.6002497747188597E-002
   3.6003581116806210E-002
   3.6001443026556834E-002
   3.6000843793907229E-002
   3.6000726547570056E-002
   3.6000402652374287E-002
   3.6000259693607262E-002
   3.6000175401867805E-002
   3.6000151991841443E-002
   3.6000623091570233E-002
   3.6000654629779388E-002
   3.6000650908492013E-002
   3.6000911725649190E-002
   3.6001216987920505E-002
   3.6001191828042962E-002
   3.6001023969363402E-002
   3.6001085328887433E-002
   3.6003097504079921E-002
   3.6003368186124825E-002
   3.6001245893186665E-002
   3.6000791072190959E-002
   3.6000459725588026E-002
   3.6000279372839748E-002
   3.6000187907519139E-002
   3.6000151269194550E-002
   3.6001895298461449E-002
   3.6001754281791629E-002
   3.6001102701252223E-002
   3.6000884572728625E-002
   3.6000744525039943E-002
   3.6000448780780306E-002
   3.6000568072732976E-002
   3.6000576631998328E-002
   3.6000786645633748E-002
   3.6002088574714201E-002
   3.6001641173967702E-002
   3.6000349797628430E-002
   3.6000308741346805E-002
   3.6000159677294814E-002
   3.6000110839972982E-002
   3.6000103975231262E-002
   3.6002545501880652E-002
   3.6002652489979511E-002
   3.6002021121439708E-002
   3.6000617051935357E-002
   3.6000991956131767E-002
   3.6000572628163238E-002
   3.6000089748634459E-002
   3.6000085249917733E-002
   3.6000105077002804E-002
   3.6000152900105019E-002
   3.6000124813680007E-002
   3.6000061378040030E-002
   3.6000042907890190E-002
   3.6000028432786539E-002
   3.6000019676232384E-002
   3.6000013949979821E-002
   6.0000161177854235E-002
   6.0000470807575368E-002
   6.0001402908229209E-002
   6.0001918873355674E-002
   6.0001317254202567E-002
   6.0000675289252930E-002
   6.0002405169484109E-002
   6.0003438810931960E-002
   6.0001502467813585E-002
   6.0000875427391638E-002
   6.0000728898692970E-002
   6.0000412191143229E-002
   6.0000265970561774E-002
   6.0000179682050243E-002
   6.0000155541289603E-002
   6.0000677041091015E-002
   6.0000696324347701E-002
   6.0000680714401872E-002
   6.0000926432834362E-002
   6.0001210214466520E-002
   6.0001177470724351E-002
   6.0001021992837453E-002
   6.0001124907646287E-002
   6.0002978504975150E-002
   6.0003212551616475E-002
   6.0001257022499040E-002
   6.0000787590007439E-002
   6.0000462663152239E-002
   6.0000283267032335E-002
   6.0000190741470949E-002
   6.0000153872553953E-002
   6.0001860670108542E-002
   6.0001726891810679E-002
   6.0001118746354248E-002
   6.0000894473455767E-002
   6.0000763472729299E-002
   6.0000486406939606E-002
   6.0000584009736742E-002
   6.0000602410608908E-002
   6.0000835074276934E-002
   6.0002018056924615E-002
   6.0001579794908964E-002
   6.0000381651189393E-002
   6.0000314803913997E-002
   6.0000168762285540E-002
   6.0000116543967884E-002
   6.0000107111701347E-002
   6.0002473295064911E-002
   6.0002562031336533E-002
   6.0001956072798519E-002
   6.0000668128628108E-002
   6.0000978064272223E-002
   6.0000585342750254E-002
   6.0000142856249120E-002
   6.0000136879964777E-002
   6.0000168320281419E-002
   6.0000239460744571E-002
   6.0000195760156513E-002
   6.0000098870502436E-002
   6.0000068763391257E-002
   6.0000045809234057E-002
   6.0000031748531607E-002
   6.0000022652105141E-002
   9.0000232795403770E-002
   9.0000519523329409E-002
   9.0001365108096781E-002
   9.0001836414144526E-002
   9.0001300353026420E-002
   9.0000743580696860E-002
   9.0002299985803946E-002
   9.0003273248040000E-002
   9.0001561673193606E-002
   9.0000911067592240E-002
   9.0000732058440364E-002
   9.0000423325869910E-002
   9.0000273587678120E-002
   9.0000184971925273E-002
   9.0000159972180957E-002
   9.0000738645555009E-002
   9.0000744491323670E-002
   9.0000716210465070E-002
   9.0000943218172605E-002
   9.0001201889473789E-002
   9.0001161672799618E-002
   9.0001021192272032E-002
   9.0001166218619422E-002
   9.0002840421687200E-002
   9.0003034478477989E-002
   9.0001266274587086E-002
   9.0000784239350914E-002
   9.0000466471057403E-002
   9.0000288245225268E-002
   9.0000194450114451E-002
   9.0000157249991997E-002
   9.0001820170881749E-002
   9.0001694754263964E-002
   9.0001136089768174E-002
   9.0000907176979394E-002
   9.0000785522971624E-002
   9.0000529701214652E-002
   9.0000604233012524E-002
   9.0000633790208229E-002
   9.0000887781723327E-002
   9.0001937090092299E-002
   9.0001511098319900E-002
   9.0000417438861918E-002
   9.0000322991909604E-002
   9.0000179876995393E-002
   9.0000123710162416E-002
   9.0000111308409361E-002
   9.0002388079042123E-002
   9.0002456914506979E-002
   9.0001882546948325E-002
   9.0000724923108968E-002
   9.0000964380748227E-002
   9.0000601974092626E-002
   9.0000204845186907E-002
   9.0000198204913326E-002
   9.0000242850261924E-002
   9.0000336451893467E-002
   9.0000275583219144E-002
   9.0000143609045458E-002
   9.0000099394122110E-002
   9.0000066633081466E-002
   9.0000046275276011E-002
   9.0000033276638441E-002
  0.12000029986747501     
  0.12000056481105456     
  0.12000133177094008     
  0.12000176222799619     
  0.12000128460298300     
  0.12000080234390278     
  0.12000220514257297     
  0.12000312054490359     
  0.12000160653289950     
  0.12000094253055410     
  0.12000073538749302     
  0.12000043365542742     
  0.12000028095728170     
  0.12000019019857833     
  0.12000016439647529     
  0.12000079414421505     
  0.12000078872596373     
  0.12000074978897841     
  0.12000095846147162     
  0.12000119381609485     
  0.12000114797264169     
  0.12000102182532957     
  0.12000119982071046     
  0.12000271309922776     
  0.12000287268307876     
  0.12000127125488327     
  0.12000078176659357     
  0.12000047040947376     
  0.12000029332339694     
  0.12000019832169918     
  0.12000016074914417     
  0.12000178257966630     
  0.12000166477558200     
  0.12000115087539627     
  0.12000092002073179     
  0.12000080595240466     
  0.12000056930996440     
  0.12000062459390512     
  0.12000066405220418     
  0.12000093295726157     
  0.12000186328505141     
  0.12000145017351904     
  0.12000044933368018     
  0.12000033168248282     
  0.12000019073532604     
  0.12000013089892467     
  0.12000011576534979     
  0.12000230848698573     
  0.12000235983475448     
  0.12000181657330103     
  0.12000077514186799     
  0.12000095407369894     
  0.12000061917279553     
  0.12000026247483359     
  0.12000025613099420     
  0.12000031248246294     
  0.12000042239656554     
  0.12000034668856552     
  0.12000018598210387     
  0.12000012829575717     
  0.12000008651894742     
  0.12000006021802341     
  0.12000004364365635     
  0.18000042253283344     
  0.18000064659765119     
  0.18000127662458162     
  0.18000163508503653     
  0.18000125633252662     
  0.18000089726696392     
  0.18000204208407170     
  0.18000284749585055     
  0.18000166097721781     
  0.18000099420431220     
  0.18000074218597081     
  0.18000045232402026     
  0.18000029506885629     
  0.18000020050286908     
  0.18000017325748241     
  0.18000089036206718     
  0.18000086606176055     
  0.18000081135286952     
  0.18000098492630365     
  0.18000117863937704     
  0.18000112609659399     
  0.18000102635019549     
  0.18000124741569162     
  0.18000248778231670     
  0.18000259257020787     
  0.18000127070736840     
  0.18000077887158364     
  0.18000047861429161     
  0.18000030371771716     
  0.18000020649473197     
  0.18000016813396394     
  0.18000171482404961     
  0.18000161081673477     
  0.18000117394692108     
  0.18000094559649527     
  0.18000084246345371     
  0.18000063870353752     
  0.18000066522440322     
  0.18000072083436167     
  0.18000100375752315     
  0.18000173496119709     
  0.18000134863834694     
  0.18000050295573386     
  0.18000035013058074     
  0.18000021171049860     
  0.18000014529680622     
  0.18000012538003432     
  0.18000216322445917     
  0.18000218852580746     
  0.18000170519112163     
  0.18000085705162014     
  0.18000094259105501     
  0.18000065467477847     
  0.18000036547401349     
  0.18000036218571189     
  0.18000043746792824     
  0.18000056515620072     
  0.18000046584991333     
  0.18000026356952378     
  0.18000018128082479     
  0.18000012361970877     
  0.18000008648605942     
  0.18000006356095383     
  0.24000052984214013     
  0.24000071779342222     
  0.24000123410168558     
  0.24000153201557886     
  0.24000123184136063     
  0.24000096712847391     
  0.24000190711138170     
  0.24000261380229113     
  0.24000168141916356     
  0.24000103225423033     
  0.24000074878482139     
  0.24000046863783114     
  0.24000030834051569     
  0.24000021060120519     
  0.24000018209882734     
  0.24000096836041893     
  0.24000093161622629     
  0.24000086600061155     
  0.24000100731102064     
  0.24000116512085840     
  0.24000110988733231     
  0.24000103315840277     
  0.24000127631625043     
  0.24000229485178651     
  0.24000235860956545     
  0.24000126091085275     
  0.24000077756329127     
  0.24000048708668975     
  0.24000031428694427     
  0.24000021509963704     
  0.24000017589183287     
  0.24000165610310559     
  0.24000156374454706     
  0.24000119080719803     
  0.24000097007781934     
  0.24000087429676495     
  0.24000069768860174     
  0.24000070470824444     
  0.24000077208100049     
  0.24000105504312544     
  0.24000162738130995     
  0.24000126770832214     
  0.24000054623067743     
  0.24000036910855926     
  0.24000023174839888     
  0.24000015961477295     
  0.24000013563165673     
  0.24000203717578136     
  0.24000204211522141     
  0.24000161467396269     
  0.24000092203031639     
  0.24000093905786682     
  0.24000069034326041     
  0.24000045541122025     
  0.24000045646786200     
  0.24000054507754920     
  0.24000067718212742     
  0.24000056075769696     
  0.24000033222279477     
  0.24000022873642413     
  0.24000015757587648     
  0.24000011085574066     
  0.24000008258393021     
  0.39000074683758940     
  0.39000085957245806     
  0.39000116952835556     
  0.39000135423241916     
  0.39000118542968010     
  0.39000106977386478     
  0.39000166312253187     
  0.39000215963104196     
  0.39000163326912457     
  0.39000108018573865     
  0.39000076284141588     
  0.39000050199112646     
  0.39000033875742818     
  0.39000023524642652     
  0.39000020443562244     
  0.39000110711535685     
  0.39000105060810747     
  0.39000097504534365     
  0.39000104960872889     
  0.39000113927130098     
  0.39000108832132580     
  0.39000105419576020     
  0.39000129106299147     
  0.39000193000791655     
  0.39000193492749508     
  0.39000121101002611     
  0.39000077784620979     
  0.39000050876643039     
  0.39000034096448705     
  0.39000023797711991     
  0.39000019689315923     
  0.39000154003301224     
  0.39000147206223257     
  0.39000121371548085     
  0.39000102409070542     
  0.39000093725280344     
  0.39000080875947907     
  0.39000079531137682     
  0.39000087541468442     
  0.39000111972867568     
  0.39000143162588224     
  0.39000113382549462     
  0.39000061971447225     
  0.39000041614174852     
  0.39000027788920644     
  0.39000019468256791     
  0.39000016325459269     
  0.39000178623078730     
  0.39000177158974653     
  0.39000146205280117     
  0.39000102284166577     
  0.39000095615325620     
  0.39000077623149926     
  0.39000063048655270     
  0.39000064473711149     
  0.39000074534915924     
  0.39000085405083096     
  0.39000071565827493     
  0.39000046652227865     
  0.39000032599598361     
  0.39000022999582751     
  0.39000016450292019     
  0.39000012603871786     
  0.54000090175471105     
  0.54000096281643384     
  0.54000113976322017     
  0.54000124890783441     
  0.54000115366426493     
  0.54000111336279200     
  0.54000149676987763     
  0.54000184080003599     
  0.54000153517515581     
  0.54000108530220026     
  0.54000077106266764     
  0.54000052728930503     
  0.54000036535204132     
  0.54000025870711021     
  0.54000022633981637     
  0.54000118920479301     
  0.54000113081985723     
  0.54000105461593251     
  0.54000108107635214     
  0.54000112393700939     
  0.54000108068690655     
  0.54000107176630940     
  0.54000127257058461     
  0.54000167351022244     
  0.54000164831197106     
  0.54000115268705773     
  0.54000077796879054     
  0.54000052930216702     
  0.54000036670912621     
  0.54000026137554280     
  0.54000021869802461     
  0.54000145690232160     
  0.54000140653706385     
  0.54000122469368772     
  0.54000106666857450     
  0.54000098505012961     
  0.54000088821818504     
  0.54000087000447683     
  0.54000094829693668     
  0.54000114007557543     
  0.54000129840268862     
  0.54000105107393626     
  0.54000066578021255     
  0.54000045804795382     
  0.54000031868451792     
  0.54000022780986334     
  0.54000019139249389     
  0.54000161156211723     
  0.54000158736973392     
  0.54000136775299201     
  0.54000108405112546     
  0.54000098489176551     
  0.54000085123879449     
  0.54000075954370053     
  0.54000078176174104     
  0.54000087555419451     
  0.54000094724426451     
  0.54000080330550393     
  0.54000056152224718     
  0.54000040107188396     
  0.54000028909936804     
  0.54000021028520595     
  0.54000016512666882     
  0.84000109154306013     
  0.84000109257011102     
  0.84000113404629495     
  0.84000116064599606     
  0.84000112220501022     
  0.84000112716250119     
  0.84000130043226462     
  0.84000145524124181     
  0.84000131836234060     
  0.84000103244502011     
  0.84000077271381912     
  0.84000056300801640     
  0.84000041038830164     
  0.84000030261094083     
  0.84000026932144234     
  0.84000126243091644     
  0.84000121483772106     
  0.84000115027747957     
  0.84000112470310606     
  0.84000111735056426     
  0.84000108548664099     
  0.84000109060119488     
  0.84000120564396541     
  0.84000137150565313     
  0.84000132419308660     
  0.84000104610039728     
  0.84000077341050639     
  0.84000056399085965     
  0.84000041314635154     
  0.84000030688847216     
  0.84000026271099437     
  0.84000135601694470     
  0.84000133075440753     
  0.84000123288901318     
  0.84000112261107840     
  0.84000105022066418     
  0.84000098685143321     
  0.84000097160753895     
  0.84000102375546093     
  0.84000112011924277     
  0.84000114474526633     
  0.84000096520797884     
  0.84000071075355642     
  0.84000052247053592     
  0.84000038512942277     