# vtk DataFile Version 2.0
3D Unstructured Grid of Linear Triangles
ASCII
DATASET UNSTRUCTURED_GRID
FIELD FieldData  1
TIME 1 1 double
        3600.00000
POINTS     7056 float
      0.00000000E+00  1.00000000E+01  1.00000000E+00
      5.00000000E-01  1.00000000E+01  9.93333333E-01
      1.00000000E+00  1.00000000E+01  9.83333333E-01
      1.50000000E+00  1.00000000E+01  9.73333333E-01
      2.00000000E+00  1.00000000E+01  9.63333333E-01
      2.50000000E+00  1.00000000E+01  9.53333333E-01
      3.00000000E+00  1.00000000E+01  9.43333333E-01
      3.50000000E+00  1.00000000E+01  9.33333333E-01
      4.00000000E+00  1.00000000E+01  9.23333333E-01
      4.50000000E+00  1.00000000E+01  9.13333333E-01
      5.00000000E+00  1.00000000E+01  9.03333333E-01
      5.50000000E+00  1.00000000E+01  8.93333333E-01
      6.00000000E+00  1.00000000E+01  8.83333333E-01
      6.50000000E+00  1.00000000E+01  8.73333333E-01
      7.00000000E+00  1.00000000E+01  8.63333333E-01
      7.50000000E+00  1.00000000E+01  8.53333333E-01
      8.00000000E+00  1.00000000E+01  8.43333333E-01
      8.50000000E+00  1.00000000E+01  8.33333333E-01
      9.00000000E+00  1.00000000E+01  8.23333333E-01
      9.50000000E+00  1.00000000E+01  8.13333333E-01
      1.00000000E+01  1.00000000E+01  8.10000000E-01
      0.00000000E+00  9.50000000E+00  9.83333333E-01
      5.00000000E-01  9.50000000E+00  9.82500000E-01
      1.00000000E+00  9.50000000E+00  9.72500000E-01
      1.50000000E+00  9.50000000E+00  9.62500000E-01
      2.00000000E+00  9.50000000E+00  9.52500000E-01
      2.50000000E+00  9.50000000E+00  9.42500000E-01
      3.00000000E+00  9.50000000E+00  9.32500000E-01
      3.50000000E+00  9.50000000E+00  9.22500000E-01
      4.00000000E+00  9.50000000E+00  9.12500000E-01
      4.50000000E+00  9.50000000E+00  9.02500000E-01
      5.00000000E+00  9.50000000E+00  8.92500000E-01
      5.50000000E+00  9.50000000E+00  8.82500000E-01
      6.00000000E+00  9.50000000E+00  8.72500000E-01
      6.50000000E+00  9.50000000E+00  8.62500000E-01
      7.00000000E+00  9.50000000E+00  8.52500000E-01
      7.50000000E+00  9.50000000E+00  8.42500000E-01
      8.00000000E+00  9.50000000E+00  8.32500000E-01
      8.50000000E+00  9.50000000E+00  8.22500000E-01
      9.00000000E+00  9.50000000E+00  8.12500000E-01
      9.50000000E+00  9.50000000E+00  8.02500000E-01
      1.00000000E+01  9.50000000E+00  8.01666667E-01
      0.00000000E+00  9.00000000E+00  9.58333333E-01
      5.00000000E-01  9.00000000E+00  9.57500000E-01
      1.00000000E+00  9.00000000E+00  9.47500000E-01
      1.50000000E+00  9.00000000E+00  9.37500000E-01
      2.00000000E+00  9.00000000E+00  9.27500000E-01
      2.50000000E+00  9.00000000E+00  9.17500000E-01
      3.00000000E+00  9.00000000E+00  9.07500000E-01
      3.50000000E+00  9.00000000E+00  8.97500000E-01
      4.00000000E+00  9.00000000E+00  8.87500000E-01
      4.50000000E+00  9.00000000E+00  8.77500000E-01
      5.00000000E+00  9.00000000E+00  8.67500000E-01
      5.50000000E+00  9.00000000E+00  8.57500000E-01
      6.00000000E+00  9.00000000E+00  8.47500000E-01
      6.50000000E+00  9.00000000E+00  8.37500000E-01
      7.00000000E+00  9.00000000E+00  8.27500000E-01
      7.50000000E+00  9.00000000E+00  8.17500000E-01
      8.00000000E+00  9.00000000E+00  8.07500000E-01
      8.50000000E+00  9.00000000E+00  7.97500000E-01
      9.00000000E+00  9.00000000E+00  7.87500000E-01
      9.50000000E+00  9.00000000E+00  7.77500000E-01
      1.00000000E+01  9.00000000E+00  7.76666667E-01
      0.00000000E+00  8.50000000E+00  9.33333333E-01
      5.00000000E-01  8.50000000E+00  9.32500000E-01
      1.00000000E+00  8.50000000E+00  9.22500000E-01
      1.50000000E+00  8.50000000E+00  9.12500000E-01
      2.00000000E+00  8.50000000E+00  9.02500000E-01
      2.50000000E+00  8.50000000E+00  8.92500000E-01
      3.00000000E+00  8.50000000E+00  8.82500000E-01
      3.50000000E+00  8.50000000E+00  8.72500000E-01
      4.00000000E+00  8.50000000E+00  8.62500000E-01
      4.50000000E+00  8.50000000E+00  8.52500000E-01
      5.00000000E+00  8.50000000E+00  8.42500000E-01
      5.50000000E+00  8.50000000E+00  8.32500000E-01
      6.00000000E+00  8.50000000E+00  8.22500000E-01
      6.50000000E+00  8.50000000E+00  8.12500000E-01
      7.00000000E+00  8.50000000E+00  8.02500000E-01
      7.50000000E+00  8.50000000E+00  7.92500000E-01
      8.00000000E+00  8.50000000E+00  7.82500000E-01
      8.50000000E+00  8.50000000E+00  7.72500000E-01
      9.00000000E+00  8.50000000E+00  7.62500000E-01
      9.50000000E+00  8.50000000E+00  7.52500000E-01
      1.00000000E+01  8.50000000E+00  7.51666667E-01
      0.00000000E+00  8.00000000E+00  9.08333333E-01
      5.00000000E-01  8.00000000E+00  9.07500000E-01
      1.00000000E+00  8.00000000E+00  8.97500000E-01
      1.50000000E+00  8.00000000E+00  8.87500000E-01
      2.00000000E+00  8.00000000E+00  8.77500000E-01
      2.50000000E+00  8.00000000E+00  8.67500000E-01
      3.00000000E+00  8.00000000E+00  8.57500000E-01
      3.50000000E+00  8.00000000E+00  8.47500000E-01
      4.00000000E+00  8.00000000E+00  8.37500000E-01
      4.50000000E+00  8.00000000E+00  8.27500000E-01
      5.00000000E+00  8.00000000E+00  8.17500000E-01
      5.50000000E+00  8.00000000E+00  8.07500000E-01
      6.00000000E+00  8.00000000E+00  7.97500000E-01
      6.50000000E+00  8.00000000E+00  7.87500000E-01
      7.00000000E+00  8.00000000E+00  7.77500000E-01
      7.50000000E+00  8.00000000E+00  7.67500000E-01
      8.00000000E+00  8.00000000E+00  7.57500000E-01
      8.50000000E+00  8.00000000E+00  7.47500000E-01
      9.00000000E+00  8.00000000E+00  7.37500000E-01
      9.50000000E+00  8.00000000E+00  7.27500000E-01
      1.00000000E+01  8.00000000E+00  7.26666667E-01
      0.00000000E+00  7.50000000E+00  8.83333333E-01
      5.00000000E-01  7.50000000E+00  8.82500000E-01
      1.00000000E+00  7.50000000E+00  8.72500000E-01
      1.50000000E+00  7.50000000E+00  8.62500000E-01
      2.00000000E+00  7.50000000E+00  8.52500000E-01
      2.50000000E+00  7.50000000E+00  8.42500000E-01
      3.00000000E+00  7.50000000E+00  8.32500000E-01
      3.50000000E+00  7.50000000E+00  8.22500000E-01
      4.00000000E+00  7.50000000E+00  8.12500000E-01
      4.50000000E+00  7.50000000E+00  8.02500000E-01
      5.00000000E+00  7.50000000E+00  7.92500000E-01
      5.50000000E+00  7.50000000E+00  7.82500000E-01
      6.00000000E+00  7.50000000E+00  7.72500000E-01
      6.50000000E+00  7.50000000E+00  7.62500000E-01
      7.00000000E+00  7.50000000E+00  7.52500000E-01
      7.50000000E+00  7.50000000E+00  7.42500000E-01
      8.00000000E+00  7.50000000E+00  7.32500000E-01
      8.50000000E+00  7.50000000E+00  7.22500000E-01
      9.00000000E+00  7.50000000E+00  7.12500000E-01
      9.50000000E+00  7.50000000E+00  7.02500000E-01
      1.00000000E+01  7.50000000E+00  7.01666667E-01
      0.00000000E+00  7.00000000E+00  8.58333333E-01
      5.00000000E-01  7.00000000E+00  8.57500000E-01
      1.00000000E+00  7.00000000E+00  8.47500000E-01
      1.50000000E+00  7.00000000E+00  8.37500000E-01
      2.00000000E+00  7.00000000E+00  8.27500000E-01
      2.50000000E+00  7.00000000E+00  8.17500000E-01
      3.00000000E+00  7.00000000E+00  8.07500000E-01
      3.50000000E+00  7.00000000E+00  7.97500000E-01
      4.00000000E+00  7.00000000E+00  7.87500000E-01
      4.50000000E+00  7.00000000E+00  7.77500000E-01
      5.00000000E+00  7.00000000E+00  7.67500000E-01
      5.50000000E+00  7.00000000E+00  7.57500000E-01
      6.00000000E+00  7.00000000E+00  7.47500000E-01
      6.50000000E+00  7.00000000E+00  7.37500000E-01
      7.00000000E+00  7.00000000E+00  7.27500000E-01
      7.50000000E+00  7.00000000E+00  7.17500000E-01
      8.00000000E+00  7.00000000E+00  7.07500000E-01
      8.50000000E+00  7.00000000E+00  6.97500000E-01
      9.00000000E+00  7.00000000E+00  6.87500000E-01
      9.50000000E+00  7.00000000E+00  6.77500000E-01
      1.00000000E+01  7.00000000E+00  6.76666667E-01
      0.00000000E+00  6.50000000E+00  8.33333333E-01
      5.00000000E-01  6.50000000E+00  8.32500000E-01
      1.00000000E+00  6.50000000E+00  8.22500000E-01
      1.50000000E+00  6.50000000E+00  8.12500000E-01
      2.00000000E+00  6.50000000E+00  8.02500000E-01
      2.50000000E+00  6.50000000E+00  7.92500000E-01
      3.00000000E+00  6.50000000E+00  7.82500000E-01
      3.50000000E+00  6.50000000E+00  7.72500000E-01
      4.00000000E+00  6.50000000E+00  7.62500000E-01
      4.50000000E+00  6.50000000E+00  7.52500000E-01
      5.00000000E+00  6.50000000E+00  7.42500000E-01
      5.50000000E+00  6.50000000E+00  7.32500000E-01
      6.00000000E+00  6.50000000E+00  7.22500000E-01
      6.50000000E+00  6.50000000E+00  7.12500000E-01
      7.00000000E+00  6.50000000E+00  7.02500000E-01
      7.50000000E+00  6.50000000E+00  6.92500000E-01
      8.00000000E+00  6.50000000E+00  6.82500000E-01
      8.50000000E+00  6.50000000E+00  6.72500000E-01
      9.00000000E+00  6.50000000E+00  6.62500000E-01
      9.50000000E+00  6.50000000E+00  6.52500000E-01
      1.00000000E+01  6.50000000E+00  6.51666667E-01
      0.00000000E+00  6.00000000E+00  8.08333333E-01
      5.00000000E-01  6.00000000E+00  8.07500000E-01
      1.00000000E+00  6.00000000E+00  7.97500000E-01
      1.50000000E+00  6.00000000E+00  7.87500000E-01
      2.00000000E+00  6.00000000E+00  7.77500000E-01
      2.50000000E+00  6.00000000E+00  7.67500000E-01
      3.00000000E+00  6.00000000E+00  7.57500000E-01
      3.50000000E+00  6.00000000E+00  7.47500000E-01
      4.00000000E+00  6.00000000E+00  7.37500000E-01
      4.50000000E+00  6.00000000E+00  7.27500000E-01
      5.00000000E+00  6.00000000E+00  7.17500000E-01
      5.50000000E+00  6.00000000E+00  7.07500000E-01
      6.00000000E+00  6.00000000E+00  6.97500000E-01
      6.50000000E+00  6.00000000E+00  6.87500000E-01
      7.00000000E+00  6.00000000E+00  6.77500000E-01
      7.50000000E+00  6.00000000E+00  6.67500000E-01
      8.00000000E+00  6.00000000E+00  6.57500000E-01
[...]
POINT_DATA     7056
SCALARS pressure float
LOOKUP_TABLE default
  -4.3524218398666624E-002
  -4.2002594197254668E-002
  -4.1112824834180800E-002
  -4.0583721638387964E-002
  -4.0194058331164982E-002
  -3.9889929989007575E-002
  -3.9645849290423994E-002
  -3.9440269467594435E-002
  -3.9262067177426078E-002
  -3.9100307904326545E-002
  -3.8939561587399439E-002
  -3.8777782134982640E-002
  -3.8601055941823330E-002
  -3.8397039882381495E-002
  -3.8148997646249024E-002
  -3.7833255490109137E-002
  -3.7411437741843190E-002
  -3.6810261405125312E-002
  -3.5877530186562888E-002
  -3.3636820077820026E-002
  -3.2166203067861006E-002
  -4.0345181692622765E-002
  -3.9809280491549338E-002
  -3.8597498760773050E-002
  -3.8039916032879435E-002
  -3.7616642040280431E-002
  -3.7282226718853860E-002
  -3.7008325874347513E-002
  -3.6776003313835182E-002
  -3.6571025450331453E-002
  -3.6383489293019738E-002
  -3.6197918674004903E-002
  -3.6005028101223253E-002
  -3.5793057638860745E-002
  -3.5545136216860861E-002
  -3.5239046110164034E-002
  -3.4838871710471543E-002
  -3.4285838506765427E-002
  -3.3448636651861964E-002
  -3.1961482872003122E-002
  -2.8774882180575907E-002
  -2.8754689697781038E-002
  -3.7554013518696194E-002
  -3.6980523575491545E-002
  -3.5286529436775113E-002
  -3.4403728387250643E-002
  -3.3710181791979280E-002
  -3.3136693058893531E-002
  -3.2641097628666099E-002
  -3.2196692145632699E-002
  -3.1787091124222865E-002
  -3.1393827872590770E-002
  -3.1007296033500515E-002
  -3.0614054596875134E-002
  -3.0190285477722456E-002
  -2.9707023216975510E-002
  -2.9128088154365395E-002
  -2.8402382074042262E-002
  -2.7450826155111369E-002
  -2.6133878378715038E-002
  -2.4147468828026750E-002
  -2.0710676562179949E-002
  -2.0833624251076741E-002
  -3.5510696966360104E-002
  -3.5044874843124095E-002
  -3.2823306615718056E-002
  -3.1377799354640454E-002
  -3.0228018050297806E-002
  -2.9356810316666752E-002
  -2.8664471510643143E-002
  -2.8089878107931149E-002
  -2.7592152017456812E-002
  -2.7140137685511628E-002
  -2.6706173112338055E-002
  -2.6264012455923254E-002
  -2.5785301128512447E-002
  -2.5236889910418284E-002
  -2.4575799615467589E-002
  -2.3739467451706422E-002
  -2.2615287360064341E-002
  -2.1021260320417390E-002
  -1.8666249963742450E-002
  -1.3861294249205805E-002
  -1.4070592039448023E-002
  -3.3658918392027941E-002
  -3.3227952183829582E-002
  -3.0256576882516758E-002
  -2.8504737299931582E-002
  -2.7270453003624788E-002
  -2.6336860075060371E-002
  -2.5591043301699666E-002
  -2.4968580428891173E-002
  -2.4426233198053461E-002
  -2.3930425996966282E-002
  -2.3450993765301829E-002
  -2.2959241226544028E-002
  -2.2421833405396645E-002
  -2.1797770689826943E-002
  -2.1026596875330553E-002
  -2.0028816430878178E-002
  -1.8671836610845163E-002
  -1.6321975536570436E-002
  -1.2651721548490693E-002
  -7.4425300109312370E-003
  -7.7234487277677453E-003
  -3.1737602080848734E-002
  -3.1337578407914547E-002
  -2.8083215442434285E-002
  -2.6245468628909318E-002
  -2.4946994786006326E-002
  -2.3953900077911833E-002
  -2.3151621650911242E-002
  -2.2474655633892532E-002
  -2.1878514176819797E-002
  -2.1326746599699058E-002
  -2.0784292403383222E-002
  -2.0214328004583938E-002
  -1.9582911390743168E-002
  -1.8839215814108863E-002
  -1.7872670781432072E-002
  -1.6269035126670821E-002
  -1.4124800454572744E-002
  -1.1215172668411228E-002
  -7.1738423067579937E-003
   3.2560737695452386E-006
   3.1530327582728612E-006
  -2.9907720342380199E-002
  -2.9621823084223030E-002
  -2.6304403498826363E-002
  -2.4392856286031283E-002
  -2.3024841434064424E-002
  -2.1961811507167840E-002
  -2.1089723864547702E-002
  -2.0336333867055079E-002
  -1.9654850913416743E-002
  -1.9009647966192197E-002
  -1.8359669094316224E-002
  -1.7594911817885969E-002
  -1.6567769441966963E-002
  -1.5386384266379676E-002
  -1.3967088328626686E-002
  -1.2201678692090868E-002
  -9.9106256758167508E-003
  -6.7258003089914710E-003
   4.1746898844634102E-006
   1.2680254006559962E-005
   1.5519310906093119E-005
  -2.8365369116153217E-002
  -2.8167100760160432E-002
  -2.4789452560686067E-002
  -2.2797988615746143E-002
  -2.1346883041495287E-002
  -2.0189397947423564E-002
  -1.9204523039874327E-002
  -1.8322195433409620E-002
  -1.7382430465094554E-002
  -1.6352503926021736E-002
  -1.5348715588705548E-002
  -1.4320705513902380E-002
  -1.3215366420688679E-002
  -1.1967041675810461E-002
  -1.0479081456316703E-002
  -8.6052449286243161E-003
  -6.2891503263864780E-003
  -2.3567469660439491E-003
   1.1739115541730066E-005
   2.4555911505181651E-005
   2.6277705627494551E-005
  -2.7009109213214290E-002
  -2.6877364037326448E-002
  -2.3435466821481118E-002
  -2.1350607567138587E-002
  -1.9781811012548361E-002
  -1.8473064627045229E-002
  -1.7131048382702355E-002
  -1.5777263931851332E-002
  -1.4572730835956465E-002
  -1.3471382234150004E-002
  -1.2416264992466024E-002
  -1.1346275969146998E-002
  -1.0203833017642258E-002
  -8.9006668042899417E-003
  -7.3119156071670566E-003
  -5.4235132669360267E-003
  -2.9391248920189969E-003
   4.6273092787696172E-006
   1.9619795764694133E-005
   3.3803772040271632E-005
   3.3467439063104738E-005
  -2.5752819524214626E-002
  -2.5672982335620743E-002
  -2.2155618741294673E-002
  -1.9943222599524014E-002
  -1.8189236512988344E-002
  -1.6304180040935319E-002
  -1.4613873584676857E-002
  -1.3180108844935468E-002
  -1.1928089150857010E-002
  -1.0785539294758069E-002
  -9.6955164867836494E-003
  -8.5802234574132961E-003
  -7.3683217209599920E-003
  -6.0882345691316911E-003
  -4.1596206624509345E-003
  -1.8081284836732076E-003
   3.6325563145074760E-006
   1.1811161664553222E-005
   2.9523065113360560E-005
   4.1512529278637003E-005
   4.0354650448635390E-005
  -2.4519224673568894E-002
  -2.4480666522145866E-002
  -2.0858928652827180E-002
  -1.8462946042115101E-002
  -1.6041983601397369E-002
  -1.3895989706728331E-002
  -1.2136915059019865E-002
  -1.0655636360041784E-002
  -9.3627613037138343E-003
  -8.1653597282480509E-003
  -7.0252586589942458E-003
  -5.9305372766640871E-003
  -4.3910986804658221E-003
  -2.8883090552806094E-003
   1.3398578311331833E-006
   4.7344766831295448E-006
   1.0352044848946632E-005
   2.0576094421451195E-005
   3.6977409208034945E-005
   4.8830247233842406E-005
   4.7438720577865201E-005
  -2.3228212444431334E-002
  -2.3217376876667715E-002
  -1.9449539569212054E-002
  -1.6441315250134377E-002
  -1.3647712408848213E-002
  -1.1422690575060582E-002
  -9.6105915023035338E-003
  -8.0553041580420041E-003
  -6.7346556100984631E-003
  -5.5152243919219645E-003
  -4.0758634350963044E-003
  -2.7264530507358584E-003
   4.9859873974940685E-007
   3.2524494751585252E-006
   6.8735169943535964E-006
   1.2284335253142558E-005
   1.8865667014309481E-005
   2.7624418826491909E-005
   4.3945560820233494E-005
   5.6348685399512397E-005
   5.5125856375339327E-005
  -2.1784513177586805E-002
  -2.1772100376120197E-002
  -1.7745297334504910E-002
  -1.3965193758293987E-002
  -1.1056851446256653E-002
  -8.7521262296002163E-003
  -6.8762716821762129E-003
  -5.1336049264894537E-003
  -3.7026705866177938E-003
  -2.3657847971825042E-003
   1.5279633347005854E-006
   4.0156321058640372E-006
   6.4640953096250903E-006
   1.0207560471695902E-005
   1.5015343623820459E-005
   1.9836865883225792E-005
   2.5933331391817281E-005
   3.4666393612378005E-005
   5.1167244919990992E-005
   6.4532306589768653E-005
   6.3797775979415069E-005
  -2.0043148472538203E-002
  -2.0019212144454845E-002
  -1.5069599434348619E-002
  -1.1095499933039765E-002
  -8.1091011839952709E-003
  -5.6551555168885496E-003
  -3.5373698942807647E-003
  -4.3834336911906810E-004
   2.9241324811896419E-006
   5.4847800879417235E-006
   8.2070340935708717E-006
   1.2279383694545414E-005
   1.5708872847535090E-005
   1.9089076381228819E-005
   2.2869790363863204E-005
   2.7517836744970289E-005
   3.3616467726542526E-005
   4.2460656987687672E-005
   5.9201478442826513E-005
   7.3856683285591010E-005
   7.3874529472915969E-005
  -1.7618169692889454E-002
  -1.7638321884918113E-002
  -1.1784255386708225E-002
  -7.6210502598363138E-003
  -4.5002757704720427E-003
   9.8693204062364452E-007
   4.5986066222123046E-006
   7.7424976907431214E-006
   1.1357753090913594E-005
   1.5911138273072429E-005
   1.9049017522713271E-005
   2.1937754164949620E-005
   2.4864405359074182E-005
   2.8069791385090874E-005
   3.1808586063598968E-005
   3.6487415879063878E-005
   4.2687297607794968E-005
   5.1676170792809486E-005
   6.8661886287007542E-005
   8.4902319906456612E-005
   8.5873463712195374E-005
  -1.3477343156778206E-002
  -1.3575364239621546E-002
  -7.4742036924798734E-003
  -2.7346515735684573E-003
   4.3222601448150604E-006
   9.9120523523035879E-006
   1.5514289943796505E-005
   2.0748686480068102E-005
   2.4430315541301396E-005
   2.7483631338516030E-005
   3.0304631509487007E-005
   3.3035821806053524E-005
   3.5907656557088069E-005
   3.9132960931042424E-005
   4.2933864374823620E-005
   4.7688394477294791E-005
   5.4008558932311094E-005
   6.3161425224145988E-005
   8.0390956124423837E-005
   9.8461140583701274E-005
   1.0050382663725962E-004
  -8.2022216012551177E-003
  -8.2472705472912584E-003
   2.3658505362483778E-006
   9.4346649984430930E-006
   1.7094639568017185E-005
   2.5765307889715355E-005
   3.1320147810760686E-005
   3.5487310147658790E-005
   3.8953877686274236E-005
   4.1951499857527025E-005
   4.4760197296369880E-005
   4.7536752200786000E-005
   5.0452719848956882E-005
   5.3736010098346891E-005
   5.7628331719471137E-005
   6.2487618454121438E-005
   6.8934486609743847E-005
   7.8255332105703657E-005
   9.5730905966913949E-005
   1.1578742888862947E-004
   1.1885464726380803E-004
  -1.3405490213083595E-003
   3.8335449634415061E-006
   1.6379486726246289E-005
   2.9526760551155334E-005
   3.9797959614282295E-005
   4.6624314618570311E-005
   5.1765449286160240E-005
   5.5891720136279185E-005
   5.9397146081690798E-005
   6.2489584265692147E-005
   6.5370110233445289E-005
   6.8234747242077281E-005
   7.1247644127370803E-005
   7.4622924160931665E-005
   7.8624778572285945E-005
   8.3612218990690258E-005
   9.0201330164679246E-005
   9.9692613777619014E-005
   1.1741147386466614E-004
   1.3934529193711592E-004
   1.4294252778462578E-004
   2.7419044083393609E-005
   2.9521185275973190E-005
   4.9221422426717611E-005
   6.6075752351595472E-005
   7.5418101205926332E-005
   8.2178685269753307E-005
   8.7417296732331449E-005
   9.1693274633344391E-005
   9.5334614210592156E-005
   9.8573610396885807E-005
   1.0159006464547549E-004
   1.0457608118153651E-004
   1.0771676470325919E-004
   1.1121888311085215E-004
   1.1535412005102337E-004
   1.2049413695704427E-004
   1.2725176201822089E-004
   1.3692173107487398E-004
   1.5482917882791368E-004
   1.7711740565540314E-004
   1.7855434107834220E-004
   1.2403175864880622E-004
   1.1677391146303295E-004
   1.4857782792335338E-004
   1.7640331838264300E-004
   1.9658682004029322E-004
   2.1454239029579901E-004
   2.3155036510639961E-004
   2.4816863073297729E-004
   2.6474980131323457E-004
   2.8153938152563691E-004
   2.9874092164761942E-004
   3.1656286509500165E-004
   3.3524812723488789E-004
   3.5509288491789628E-004
   3.7650103210695501E-004
   4.0006345886003708E-004
   4.2674047646138369E-004
   4.5844325927296687E-004
   5.0193103496650588E-004
   5.5112107874677647E-004
   4.4987904901078494E-004
   1.6520807090477272E-004
   1.7550833807997431E-004
   2.1208604409439448E-004
   2.5423972275841086E-004
   2.8559791010234614E-004
   3.1464175171474145E-004
   3.4309504675393327E-004
   3.7167898917540328E-004
   4.0078079597092697E-004
   4.3067014639647878E-004
   4.6156879238650340E-004
   4.9369968934375439E-004
   5.2733211947718079E-004
   5.6281833578059569E-004
   6.0064569686034571E-004
   6.4153364696148852E-004
   6.8663095270944034E-004
   7.3807917859594293E-004
   8.0220342456316298E-004
   8.7896255910312768E-004
   9.2842139065955973E-004
  -3.7968941180017618E-002
  -3.6561247542186377E-002
  -3.5633111052790219E-002
  -3.5080063833445967E-002
  -3.4673660453301357E-002
  -3.4356815636310788E-002
  -3.4102552780084158E-002
  -3.3888549530630585E-002
  -3.3703046263920976E-002
  -3.3534632657187306E-002
  -3.3367583545140606E-002
  -3.3199320962412904E-002
  -3.3015645835717408E-002
  -3.2803757530021620E-002
  -3.2546375777105091E-002
  -3.2219074192238614E-002
  -3.1782349486442367E-002
  -3.1160796805292754E-002
  -3.0197442665529230E-002
  -2.7953880364945768E-002
  -2.6663640650781494E-002
  -3.4855817064047424E-002
  -3.4529360155947139E-002
  -3.3260670868908854E-002
  -3.2673069243007717E-002
  -3.2229101315305507E-002
  -3.1878670881115491E-002
  -3.1591888913672865E-002
  -3.1348861182543333E-002
  -3.1134684232459808E-002
  -3.0938856786111812E-002
  -3.0745505880026194E-002
  -3.0544860945408762E-002
  -3.0324765886658334E-002
  -3.0068004399397941E-002
  -2.9752058013087408E-002
  -2.9340946405062174E-002
  -2.8776617924772839E-002
  -2.7931564110787857E-002
  -2.6440491622500693E-002
  -2.3152782947965550E-002
  -2.3242151192535219E-002
  -3.1978014366430933E-002
  -3.1583617656953236E-002
  -2.9849747746564893E-002
  -2.8948027333700724E-002
  -2.8247504056508308E-002
  -2.7673438034613602E-002
  -2.7180927678631311E-002
  -2.6740539635044823E-002
  -2.6333678038583601E-002
  -2.5934946648939926E-002
  -2.5529327062188373E-002
  -2.5114128168917456E-002
  -2.4667472291897311E-002
  -2.4159143075769187E-002
  -2.3551539825555211E-002
  -2.2791870402497690E-002
  -2.1798914154085382E-002
  -2.0430959518476875E-002
  -1.8377043979988007E-002
  -1.4873224954528563E-002
  -1.5041902690435028E-002
  -2.9889638303822245E-002
  -2.9586633086058554E-002
  -2.7364667864255000E-002
  -2.5929226192776881E-002
  -2.4726659072185093E-002
  -2.3811386059109436E-002
  -2.3085586412255152E-002
  -2.2484053235914396E-002
  -2.1963495534216247E-002
  -2.1491156194088964E-002
  -2.1038296141426008E-002
  -2.0577791594443486E-002
  -2.0080215169698649E-002
  -1.9511351960393976E-002
  -1.8827236164101788E-002
  -1.7964450354026801E-002
  -1.6808999193326946E-002
  -1.5175983982075153E-002
  -1.2776921410286296E-002
  -7.9558686600385876E-003
  -8.1876468357348700E-003
  -2.8025176138365648E-002
  -2.7753296351371939E-002
  -2.4757607607134201E-002
  -2.2922584082796370E-002
  -2.1631949267558060E-002
  -2.0659319422522381E-002
  -1.9884674932155941E-002
  -1.9239550378665926E-002
  -1.8678416756421123E-002
  -1.8166211322816799E-002
  -1.7671739859986532E-002
  -1.7165448858963470E-002
  -1.6613319063388740E-002
  -1.5974091270144212E-002
  -1.5185385940306764E-002
  -1.4166028122854016E-002
  -1.2786576594442472E-002
  -1.0433333276648043E-002
  -6.7108070420300028E-003
  -1.4702497575004385E-003
  -1.7555470102629523E-003
  -2.6115973833868007E-002
  -2.5852762857491034E-002
  -2.2480142688234218E-002
  -2.0564351351574181E-002
  -1.9217894427118389E-002
  -1.8192212131830355E-002
  -1.7366032769588566E-002
  -1.6670475267290062E-002
  -1.6059131077104612E-002
  -1.5494437769281656E-002
  -1.4940732418702928E-002
  -1.4359347734158730E-002
  -1.3715350740895331E-002
  -1.2959957802073955E-002
  -1.1992440931403383E-002
  -1.0383117333656884E-002
  -8.2102508051295434E-003
  -5.2640237065243968E-003
  -1.1982548100976207E-003
   5.9318844683843965E-003
   5.9230881092698431E-003
  -2.4221580453521137E-002
  -2.4045398388884153E-002
  -2.0623188521250349E-002
  -1.8644174740906527E-002
  -1.7235449920634950E-002
  -1.6144981277466799E-002
  -1.5253227160340697E-002
  -1.4485343101447768E-002
  -1.3791722199576700E-002
  -1.3135958405247014E-002
  -1.2479351817087517E-002
  -1.1733549842063751E-002
  -1.0690543111991323E-002
  -9.4906844056302266E-003
  -8.0523465926502519E-003
  -6.2666877930866111E-003
  -3.9557883378899114E-003
  -7.5233805816363761E-004
   5.8909736655174075E-003
   6.0541984129503920E-003
   6.0272974970526005E-003
  -2.2627955675270643E-002
  -2.2520655772587595E-002
  -1.9051118847993584E-002
  -1.7001019973318671E-002
  -1.5515240140648591E-002
  -1.4335424734533832E-002
  -1.3334901524694801E-002
  -1.2443444125300674E-002
  -1.1521181882353584E-002
  -1.0474897697751022E-002
  -9.4552406650825465E-003
  -8.4121774758255871E-003
  -7.2918757815289030E-003
  -6.0295517048080368E-003
  -4.5286293507737635E-003
  -2.6438772031593285E-003
  -3.1677975466817024E-004
   3.5876755028438818E-003
   5.9899387280436317E-003
   6.1087865917648764E-003
   6.0796576971838805E-003
  -2.1231655399373231E-002
  -2.1176395482415972E-002
  -1.7653165894376693E-002
  -1.5517515499330807E-002
  -1.3919739080175630E-002
  -1.2594408621515832E-002
  -1.1265765830411258E-002
  -9.8917747535283845E-003
  -8.6690029953463785E-003
  -7.5520832180690934E-003
  -6.4842186143340618E-003
  -5.4031565406460983E-003
  -4.2508305406413708E-003
  -2.9389178505350327E-003
  -1.3422594557141619E-003
   5.4801290428732076E-004
   3.0346915533507523E-003
   5.9656326507066121E-003
   6.0411251748288394E-003
   6.1495352164033564E-003
   6.1167306307441617E-003
  -1.9942203133915419E-002
  -1.9926896276848745E-002
  -1.6337714120088578E-002
  -1.4081456258425983E-002
  -1.2307936873558144E-002
  -1.0424850503229973E-002
  -8.7105392656000643E-003
  -7.2573915313508290E-003
  -5.9911574142465463E-003
  -4.8376571891730977E-003
  -3.7390830970117448E-003
  -2.6166734356493308E-003
  -1.3978434551616991E-003
  -1.1030853221447173E-004
   1.8183359911559608E-003
   4.1548919005633860E-003
   5.9682353943366021E-003
   6.0202005103439727E-003
   6.0783465746560607E-003
   6.1819575297613043E-003
   6.1475400094230057E-003
  -1.8679555583974539E-002
  -1.8695115282937019E-002
  -1.5010325616505020E-002
  -1.2578906986960108E-002
  -1.0155894981615284E-002
  -7.9817137481768222E-003
  -6.2018582742043886E-003
  -4.7065608109764113E-003
  -3.4041626367139945E-003
  -2.1997977440973587E-003
  -1.0531542634610407E-003
   4.6450386221933874E-005
   1.5893871327284136E-003
   3.0936149352466607E-003
   5.9452587577191237E-003
   5.9845482066133160E-003
   6.0175589345704966E-003
   6.0543252976454128E-003
   6.1079509302879994E-003
   6.2103841920168705E-003
   6.1753106763222897E-003
  -1.7361678284124271E-002
  -1.7396223700318642E-002
  -1.3572932532580548E-002
  -1.0555867830129370E-002
  -7.7283438735457465E-003
  -5.4797451270569720E-003
  -3.6531865713503656E-003
  -2.0886714180221528E-003
  -7.6138557376130241E-004
   4.6153863233341902E-004
   1.9046849857977917E-003
   3.2557265916856506E-003
   5.9436711569041383E-003
   5.9745478605818534E-003
   6.0020091860251588E-003
   6.0242865836795164E-003
   6.0498257997900614E-003
   6.0825224509750203E-003
   6.1348074732829510E-003
   6.2374323239048563E-003
   6.2022708167181586E-003
  -1.5892178411754523E-002
  -1.5914793529368650E-002
  -1.1861357515545512E-002
  -8.0459968213843387E-003
  -5.1095778842243245E-003
  -2.7886931811286928E-003
  -9.0206990004666797E-004
   8.4412005981024515E-004
   2.2777366001966943E-003
   3.6158626947371008E-003
   5.9515061442651559E-003
   5.9788056797644143E-003
   6.0016886111187457E-003
   6.0180397221216118E-003
   6.0358294450223813E-003
   6.0548117001296463E-003
   6.0780698847326389E-003
   6.1097140975936680E-003
   6.1616460712011550E-003
   6.2651703994351434E-003
   6.2303154890382215E-003
  -1.4127438021431600E-002
  -1.4126149219057459E-002
  -9.1551382983930483E-003
  -5.1465717998574285E-003
  -2.1387119114309842E-003
   3.2388990433257953E-004
   2.4433008694867957E-003
   5.5008201725381895E-003
   5.9665249939312064E-003
   5.9887062361197148E-003
   6.0099299654315036E-003
   6.0249477730161547E-003
   6.0387574010020992E-003
   6.0523287174033824E-003
   6.0672441399100161E-003
   6.0849452011207594E-003
   6.1074688073176611E-003
   6.1387535703288582E-003
   6.1906901113442736E-003
   6.2956020261352649E-003
   6.2613495028404622E-003
  -1.1693284658104510E-002
  -1.1731127466237680E-002
  -5.8350376324961565E-003